mass 1 180.947880
pair_style hybrid/overlay soft 2.720 mliap model mliappy LATER descriptor ace coupling_coefficients.yace
Loading python model deferred.
pair_coeff * * soft 1.000000
pair_coeff * * mliap   Ta

thermo 10
velocity all create 1. 4928459 dist gaussian
Loading python model complete.
dump    r5 all xyz 1 dyn_5.xyz
velocity all create 800.0 4928459 loop geom
fix  a1  all nve
run 1000
Neighbor list info ...
  update: every = 1 steps, delay = 0 steps, check = yes
  max neighbors/atom: 2000, page size: 100000
  master list distance cutoff = 13.209389
  ghost atom cutoff = 13.209389
  binsize = 6.6046944, bins = 2 3 2
  2 neighbor lists, perpetual/occasional/extra = 2 0 0
  (1) pair soft, perpetual, half/full trim from (2)
      attributes: half, newton on, cut 4.720000000000001
      pair build: halffull/trim/newton/tri
      stencil: none
      bin: none
  (2) pair mliap, perpetual
      attributes: full, newton on
      pair build: full/bin/atomonly
      stencil: full/bin/3d
      bin: standard
Per MPI rank memory allocation (min/avg/max) = 6.892 | 6.892 | 6.892 Mbytes
   Step          Temp          E_pair         E_mol          TotEng         Press     
         0   800            18.642252      0              23.192209      60627.642    
        10   797.19512      18.689518      0              23.223522      60624.283    
        20   836.11541      18.477979      0              23.23334       60734.821    
        30   915.6081       18.077176      0              23.284648      61154.44     
        40   1032.1241      17.443147      0              23.313298      61430.697    
        50   1179.8657      16.525995      0              23.236418      61562.439    
        60   1350.4103      15.549352      0              23.229738      61558.9      
        70   1535.2772      14.470624      0              23.202431      61161.715    
        80   1724.0527      13.385649      0              23.191106      60442.564    
        90   1906.9384      12.341439      0              23.187049      59264.265    
       100   2070.7749      11.422828      0              23.200249      58155.016    
       110   2202.0891      10.700929      0              23.225193      56944.474    
       120   2297.5597      10.155877      0              23.223124      55596.951    
       130   2359.8491      9.7896036      0              23.211119      54413.809    
       140   2398.0708      9.5741235      0              23.213023      53940.965    
       150   2417.322       9.4664816      0              23.214871      53385.209    
       160   2415.5715      9.4556577      0              23.194091      52917.44     
       170   2392.4813      9.5943542      0              23.201463      52617.103    
       180   2354.7447      9.8078953      0              23.200379      51991.866    
       190   2311.211       10.063122      0              23.20801       51762.966    
       200   2270.2648      10.300612      0              23.212621      51567.76     
       210   2235.8482      10.493174      0              23.209441      51224.57     
       220   2209.4241      10.657065      0              23.223046      51219.617    
       230   2186.7606      10.782724      0              23.219808      51356.137    
       240   2161.6824      10.947008      0              23.241461      52093.77     
       250   2131.0827      11.133261      0              23.253679      53342.23     
       260   2092.2013      11.318541      0              23.217823      54930.506    
       270   2053.3857      11.564803      0              23.243324      55394.805    
       280   2018.6179      11.757634      0              23.238415      55523.861    
       290   1991.384       11.874482      0              23.200371      55439.313    
       300   1973.169       12.050946      0              23.273239      55280.047    
       310   1959.5248      12.096338      0              23.241031      54844.281    
       320   1950.8915      12.186393      0              23.281984      54585.283    
       330   1951.8645      12.228773      0              23.329898      54709.965    
       340   1967.4304      12.104437      0              23.294092      54580.273    
       350   1995.9311      11.928663      0              23.280414      54077.108    
       360   2037.4383      11.788216      0              23.376037      53391.284    
       370   2087.4395      11.503856      0              23.376056      53459.724    
       380   2143.2205      11.109369      0              23.29882       53272.899    
       390   2202.9216      10.845715      0              23.374713      53612.085    
       400   2256.995       10.442291      0              23.278829      53711.832    
       410   2298.5318      10.210191      0              23.282968      53550.225    
       420   2325.8227      10.048442      0              23.276434      53408.739    
       430   2337.3099      9.9773052      0              23.27063       53388.725    
       440   2334.3265      10.02656       0              23.302917      54046.438    
       450   2314.8686      10.231186      0              23.396877      55228.079    
       460   2284.9645      10.436643      0              23.432256      55375.222    
       470   2247.5843      10.659851      0              23.442866      54872.715    
       480   2208.0327      10.88857       0              23.446637      54376.147    
       490   2172.9897      11.088202      0              23.446965      53902.817    
       500   2145.3609      11.252822      0              23.454447      53190.73     
       510   2126.2774      11.309488      0              23.402576      52546.561    
       520   2116.4755      11.40325       0              23.440591      52138.148    
       530   2115.3034      11.492495      0              23.52317       51734.152    
       540   2122.6206      11.451096      0              23.523387      51409.372    
       550   2135.2281      11.377779      0              23.521775      50842.655    
       560   2151.2023      11.227941      0              23.462789      51040.748    
       570   2162.1958      11.173638      0              23.471011      51837.454    
       580   2162.4324      11.20196       0              23.500678      52726.647    
       590   2148.8079      11.318904      0              23.540134      53900.342    
       600   2123.6057      11.412826      0              23.49072       54331.225    
       610   2087.8728      11.585729      0              23.460393      54206.102    
       620   2044.6661      11.904545      0              23.533474      54205.697    
       630   2000.3225      12.133536      0              23.510263      53713.155    
       640   1962.1275      12.378496      0              23.537991      53294.018    
       650   1935.5837      12.556383      0              23.564912      52811.503    
       660   1925.812       12.603356      0              23.556309      52427.663    
       670   1931.1278      12.408644      0              23.39183       51659.347    
       680   1948.5761      12.285872      0              23.368294      51408.439    
       690   1976.5278      12.15135       0              23.392746      51584.779    
       700   2014.6671      11.955762      0              23.414073      52146.949    
       710   2062.0244      11.68334       0              23.410993      52860.539    
       720   2112.0701      11.444013      0              23.456299      53881.378    
       730   2156.7101      11.205271      0              23.471445      54816.393    
       740   2191.2315      11.03354       0              23.496052      55907.383    
       750   2214.9707      10.883472      0              23.480999      56519.228    
       760   2227.465       10.74049       0              23.409078      57218.35     
       770   2223.2332      10.798706      0              23.443225      58245.409    
       780   2203.0947      10.905218      0              23.435201      58650.86     
       790   2168.453       11.094591      0              23.427551      58290.568    
       800   2124.6249      11.360561      0              23.444251      58083.441    
       810   2079.8695      11.612395      0              23.441542      58080.388    
       820   2038.9469      11.848166      0              23.444567      58273.991    
       830   2002.8939      12.010708      0              23.40206       57830.638    
       840   1971.1464      12.194575      0              23.405365      56956.312    
       850   1944.0732      12.33906       0              23.395872      56616.86     
       860   1925.4972      12.413695      0              23.364857      56706.044    
       870   1916.9022      12.507057      0              23.409336      57294.491    
       880   1918.626       12.407171      0              23.319253      57535.949    
       890   1929.4068      12.287233      0              23.260631      57512.551    
       900   1945.4797      12.195348      0              23.260159      57644.638    
       910   1961.364       12.134851      0              23.290004      58216.2      
       920   1972.5106      12.109991      0              23.32854       58560.406    
       930   1978.5264      12.019583      0              23.272346      58797.843    
       940   1979.5478      12.038283      0              23.296855      58821.853    
       950   1976.7034      12.084244      0              23.326639      58826.337    
       960   1971.0763      12.115823      0              23.326213      58571.399    
       970   1963.6781      12.264839      0              23.433153      58246.855    
       980   1956.8134      12.288168      0              23.417439      57998.521    
       990   1949.458       12.370485      0              23.457923      58068.584    
      1000   1942.5557      12.36526       0              23.413441      57621.301    
Loop time of 18.121 on 1 procs for 1000 steps with 45 atoms

Performance: 4.768 ns/day, 5.034 hours/ns, 55.185 timesteps/s, 2.483 katom-step/s
99.7% CPU use with 1 MPI tasks x 1 OpenMP threads

MPI task timing breakdown:
Section |  min time  |  avg time  |  max time  |%varavg| %total
---------------------------------------------------------------
Pair    | 18.048     | 18.048     | 18.048     |   0.0 | 99.60
Neigh   | 0.005255   | 0.005255   | 0.005255   |   0.0 |  0.03
Comm    | 0.011753   | 0.011753   | 0.011753   |   0.0 |  0.06
Output  | 0.052397   | 0.052397   | 0.052397   |   0.0 |  0.29
Modify  | 0.0011236  | 0.0011236  | 0.0011236  |   0.0 |  0.01
Other   |            | 0.002384   |            |       |  0.01

Nlocal:             45 ave          45 max          45 min
Histogram: 1 0 0 0 0 0 0 0 0 0
Nghost:           3040 ave        3040 max        3040 min
Histogram: 1 0 0 0 0 0 0 0 0 0
Neighs:            519 ave         519 max         519 min
Histogram: 1 0 0 0 0 0 0 0 0 0
FullNghs:        23942 ave       23942 max       23942 min
Histogram: 1 0 0 0 0 0 0 0 0 0

Total # of neighbors = 23942
Ave neighs/atom = 532.04444
Neighbor list builds = 9
Dangerous builds = 0
unfix  a1
min_style  cg
min_modify  dmax 0.5 line quadratic
dump    a5 all xyz 1 min_5.xyz
minimize 1e-12 1e-12 10000 100000
Per MPI rank memory allocation (min/avg/max) = 9.048 | 9.048 | 9.048 Mbytes
   Step          Temp          E_pair         E_mol          TotEng         Press     
      1000   1942.5557      12.436769      0              23.484951      57967.913    
      1010   1942.5557      2.3347202      0              13.382902      12642.805    
      1020   1942.5557      2.1284298      0              13.176611      7959.4404    
      1024   1942.5557      2.1034941      0              13.151676      8073.7145    
Loop time of 1.68472 on 1 procs for 24 steps with 45 atoms

99.7% CPU use with 1 MPI tasks x 1 OpenMP threads

Minimization stats:
  Stopping criterion = linesearch alpha is zero
  Energy initial, next-to-last, final = 
      12.4367690488545   2.10349410287165   2.10349410287165
  Force two-norm initial, final = 5.9931862 0.17944652
  Force max component initial, final = 1.4199119 0.045817756
  Final line search alpha, max atom move = 2.3841858e-07 1.0923804e-08
  Iterations, force evaluations = 24 92

MPI task timing breakdown:
Section |  min time  |  avg time  |  max time  |%varavg| %total
---------------------------------------------------------------
Pair    | 1.6805     | 1.6805     | 1.6805     |   0.0 | 99.75
Neigh   | 0.00057154 | 0.00057154 | 0.00057154 |   0.0 |  0.03
Comm    | 0.0010827  | 0.0010827  | 0.0010827  |   0.0 |  0.06
Output  | 0.0019734  | 0.0019734  | 0.0019734  |   0.0 |  0.12
Modify  | 0          | 0          | 0          |   0.0 |  0.00
Other   |            | 0.000585   |            |       |  0.03

Nlocal:             45 ave          45 max          45 min
Histogram: 1 0 0 0 0 0 0 0 0 0
Nghost:           3020 ave        3020 max        3020 min
Histogram: 1 0 0 0 0 0 0 0 0 0
Neighs:            484 ave         484 max         484 min
Histogram: 1 0 0 0 0 0 0 0 0 0
FullNghs:        23974 ave       23974 max       23974 min
Histogram: 1 0 0 0 0 0 0 0 0 0

Total # of neighbors = 23974
Ave neighs/atom = 532.75556
Neighbor list builds = 1
Dangerous builds = 0
write_data ./StructureDump/sample.5.dat 
System init for write_data ...
variable etot equal etotal
variable ptot equal press
variable pairp equal epair
variable numat equal atoms
run 0
WARNING: No fixes with time integration, atoms won't move (src/verlet.cpp:60)
Per MPI rank memory allocation (min/avg/max) = 8.927 | 8.927 | 8.927 Mbytes
   Step          Temp          E_pair         E_mol          TotEng         Press     
      1024   1942.5557      2.1034941      0              13.151676      7539.0894    
Loop time of 2.03e-05 on 1 procs for 0 steps with 45 atoms

78.8% CPU use with 1 MPI tasks x 1 OpenMP threads

MPI task timing breakdown:
Section |  min time  |  avg time  |  max time  |%varavg| %total
---------------------------------------------------------------
Pair    | 0          | 0          | 0          |   0.0 |  0.00
Neigh   | 0          | 0          | 0          |   0.0 |  0.00
Comm    | 0          | 0          | 0          |   0.0 |  0.00
Output  | 0          | 0          | 0          |   0.0 |  0.00
Modify  | 0          | 0          | 0          |   0.0 |  0.00
Other   |            | 2.03e-05   |            |       |100.00

Nlocal:             45 ave          45 max          45 min
Histogram: 1 0 0 0 0 0 0 0 0 0
Nghost:           3063 ave        3063 max        3063 min
Histogram: 1 0 0 0 0 0 0 0 0 0
Neighs:            492 ave         492 max         492 min
Histogram: 1 0 0 0 0 0 0 0 0 0
FullNghs:        23938 ave       23938 max       23938 min
Histogram: 1 0 0 0 0 0 0 0 0 0

Total # of neighbors = 23938
Ave neighs/atom = 531.95556
Neighbor list builds = 0
Dangerous builds = 0
print "${etot} ${pairp} ${ptot} ${numat} " append Summary.dat screen no
Total wall time: 0:00:20
