mass 1 180.947880
pair_style hybrid/overlay soft 2.720 mliap model mliappy LATER descriptor ace coupling_coefficients.yace
Loading python model deferred.
pair_coeff * * soft 1.000000
pair_coeff * * mliap   Ta

thermo 10
velocity all create 1. 4928459 dist gaussian
Loading python model complete.
dump    r1 all xyz 1 dyn_1.xyz
velocity all create 800.0 4928459 loop geom
fix  a1  all nve
run 1000
Neighbor list info ...
  update: every = 1 steps, delay = 0 steps, check = yes
  max neighbors/atom: 2000, page size: 100000
  master list distance cutoff = 13.209389
  ghost atom cutoff = 13.209389
  binsize = 6.6046944, bins = 10 4 27
  2 neighbor lists, perpetual/occasional/extra = 2 0 0
  (1) pair soft, perpetual, half/full trim from (2)
      attributes: half, newton on, cut 4.720000000000001
      pair build: halffull/trim/newton/tri
      stencil: none
      bin: none
  (2) pair mliap, perpetual
      attributes: full, newton on
      pair build: full/bin/atomonly
      stencil: full/bin/3d
      bin: standard
Per MPI rank memory allocation (min/avg/max) = 10.64 | 10.64 | 10.64 Mbytes
   Step          Temp          E_pair         E_mol          TotEng         Press     
         0   800            15.883619      0              22.708554      67120.53     
        10   818.43699      15.737096      0              22.71932       67060.234    
        20   860.28027      15.389269      0              22.728466      63590.49     
        30   922.78434      14.840696      0              22.713125      63182.321    
        40   1003.5463      14.165503      0              22.726927      62764.976    
        50   1098.9384      13.358511      0              22.733741      62142.673    
        60   1203.8729      12.477276      0              22.747721      61362.494    
        70   1311.5136      11.550547      0              22.739293      60213.311    
        80   1413.8973      10.656551      0              22.718748      58699.978    
        90   1503.7006      9.8770075      0              22.705332      57087.956    
       100   1574.6345      9.2783587      0              22.711833      55328.789    
       110   1623.5026      8.8180247      0              22.6684        53113.705    
       120   1649.4902      8.5786344      0              22.650715      50832.517    
       130   1656.8994      8.2331848      0              22.368474      49035.146    
       140   1655.8447      8.2860095      0              22.412301      48338.517    
       150   1652.4625      8.3356829      0              22.433121      48260.166    
       160   1649.0924      8.3533485      0              22.422035      48124.999    
       170   1648.8574      8.384638       0              22.45132       48112.606    
       180   1652.5908      8.3437407      0              22.442273      47876.768    
       190   1660.3165      8.276871       0              22.441312      47804.952    
       200   1672.5061      8.1720771      0              22.44051       47845.735    
       210   1688.147       8.0280737      0              22.429942      47991.416    
       220   1705.7897      7.6550359      0              22.207417      48093.339    
       230   1721.3928      7.512874       0              22.198368      48569.83     
       240   1734.7295      7.4295401      0              22.228811      48902.741    
       250   1745.2028      7.3827663      0              22.271387      49079.698    
       260   1752.6135      7.4013406      0              22.353184      49219.408    
       270   1756.1105      7.3292543      0              22.310931      49383.446    
       280   1754.7745      7.3269312      0              22.29721       49775.881    
       290   1748.7398      7.3401853      0              22.258981      50062.228    
       300   1738.2224      7.4181755      0              22.247246      50323.95     
       310   1723.6161      7.6017588      0              22.30622       51206.714    
       320   1706.474       7.7876063      0              22.345826      51223.575    
       330   1688.7106      7.9342771      0              22.340954      50967.955    
       340   1675.6127      8.0754209      0              22.370357      50986.865    
       350   1669.249       8.1556817      0              22.396328      51119.88     
       360   1664.5497      8.2256594      0              22.426215      51340.197    
       370   1658.5916      8.2896965      0              22.439423      51285.678    
       380   1650.596       8.3317828      0              22.413297      51094.156    
       390   1641.9821      8.4131398      0              22.421168      51125.964    
       400   1633.433       8.5018503      0              22.436944      50965.223    
       410   1625.0361      8.5735589      0              22.437018      50658.656    
       420   1616.7794      8.3880357      0              22.181055      49129.494    
       430   1608.7257      8.4734569      0              22.197769      48959.425    
       440   1600.2516      8.5572319      0              22.20925       49219.363    
       450   1590.2067      8.6618256      0              22.228148      49644.314    
       460   1578.3826      8.7520397      0              22.217489      50114.443    
       470   1565.2829      8.9034701      0              22.257164      50327.212    
       480   1552.6066      9.0088735      0              22.254423      50278.532    
       490   1541.2357      9.1408569      0              22.2894        50364.216    
       500   1533.6755      9.1969044      0              22.28095       50006.953    
       510   1531.6472      9.2734687      0              22.340211      49533.202    
       520   1537.9775      9.2120164      0              22.332764      49097.878    
       530   1553.8936      9.106184       0              22.362714      48682.337    
       540   1578.4318      8.8901091      0              22.355978      48101.708    
       550   1609.9244      8.638928       0              22.373466      47752.092    
       560   1647.2781      8.3212135      0              22.374423      47844.034    
       570   1689.1544      7.9324583      0              22.34292       47685.974    
       580   1732.8478      7.5255573      0              22.308776      47579.3      
       590   1773.3954      7.1833787      0              22.312516      47710.113    
       600   1803.3268      6.9084018      0              22.292889      47688.071    
       610   1819.9857      6.7609948      0              22.287602      47381.864    
       620   1823.0468      6.7063132      0              22.259034      46793.168    
       630   1811.9901      6.7820889      0              22.240484      46258.734    
       640   1788.9085      6.9562032      0              22.217685      45603.692    
       650   1759.5718      7.1252726      0              22.136478      45077.846    
       660   1729.3567      7.3597734      0              22.113208      45034.118    
       670   1700.8101      7.6251721      0              22.135072      45548.152    
       680   1673.1774      7.8790932      0              22.153253      46454.982    
       690   1646.5865      8.0753974      0              22.122706      47063.894    
       700   1621.9718      8.3357286      0              22.173045      47850.593    
       710   1599.9153      8.4945746      0              22.143723      48793.58     
       720   1581.4652      8.6560632      0              22.147811      49780.044    
       730   1567.8576      8.7954235      0              22.171082      50467.652    
       740   1559.6628      8.8968216      0              22.202569      51200.583    
       750   1554.5911      8.941404       0              22.203884      51783.867    
       760   1553.0084      8.9669876      0              22.215966      52373.152    
       770   1555.8721      8.7360582      0              22.009467      52317.441    
       780   1561.3882      8.7437317      0              22.064199      52568.325    
       790   1569.6818      8.6878498      0              22.079072      52379.381    
       800   1579.4665      8.6125099      0              22.087206      51842.711    
       810   1588.8429      8.4883912      0              22.04308       51287.665    
       820   1594.2852      8.4536883      0              22.054806      50772.436    
       830   1597.135       8.4489317      0              22.074361      50524.654    
       840   1601.014       8.3915817      0              22.050103      50146.851    
       850   1607.8345      8.3221253      0              22.038834      49577.627    
       860   1617.703       8.2658243      0              22.066723      49090.115    
       870   1631.2207      8.1630017      0              22.079222      48624.988    
       880   1646.1985      8.0755827      0              22.119582      48362.002    
       890   1660.1873      7.9745442      0              22.137883      48161.744    
       900   1670.0223      7.9111996      0              22.158443      47858.65     
       910   1675.5846      7.9077237      0              22.20242       47465.476    
       920   1678.0771      7.838907       0              22.154867      47440.574    
       930   1676.9958      7.9183591      0              22.225095      47709.721    
       940   1670.6141      7.9551898      0              22.207482      48092.21     
       950   1659.0133      8.1288256      0              22.28215       48615.504    
       960   1642.6302      8.2890771      0              22.302634      48851.809    
       970   1623.4738      8.4013753      0              22.251506      49126.15     
       980   1604.3361      8.2764459      0              21.963309      49311.924    
       990   1587.6241      8.3876352      0              21.931926      49237.559    
      1000   1573.7184      8.5549174      0              21.980576      49108.712    
Loop time of 27.4122 on 1 procs for 1000 steps with 67 atoms

Performance: 3.152 ns/day, 7.615 hours/ns, 36.480 timesteps/s, 2.444 katom-step/s
99.7% CPU use with 1 MPI tasks x 1 OpenMP threads

MPI task timing breakdown:
Section |  min time  |  avg time  |  max time  |%varavg| %total
---------------------------------------------------------------
Pair    | 27.266     | 27.266     | 27.266     |   0.0 | 99.47
Neigh   | 0.0078296  | 0.0078296  | 0.0078296  |   0.0 |  0.03
Comm    | 0.037869   | 0.037869   | 0.037869   |   0.0 |  0.14
Output  | 0.093278   | 0.093278   | 0.093278   |   0.0 |  0.34
Modify  | 0.0013836  | 0.0013836  | 0.0013836  |   0.0 |  0.01
Other   |            | 0.005574   |            |       |  0.02

Nlocal:             67 ave          67 max          67 min
Histogram: 1 0 0 0 0 0 0 0 0 0
Nghost:          10010 ave       10010 max       10010 min
Histogram: 1 0 0 0 0 0 0 0 0 0
Neighs:            787 ave         787 max         787 min
Histogram: 1 0 0 0 0 0 0 0 0 0
FullNghs:        36372 ave       36372 max       36372 min
Histogram: 1 0 0 0 0 0 0 0 0 0

Total # of neighbors = 36372
Ave neighs/atom = 542.86567
Neighbor list builds = 9
Dangerous builds = 0
unfix  a1
min_style  cg
min_modify  dmax 0.5 line quadratic
dump    a1 all xyz 1 min_1.xyz
minimize 1e-12 1e-12 10000 100000
Per MPI rank memory allocation (min/avg/max) = 12.78 | 12.78 | 12.78 Mbytes
   Step          Temp          E_pair         E_mol          TotEng         Press     
      1000   1573.7184      8.5900094      0              22.015668      49099.295    
      1010   1573.7184      2.7392433      0              16.164902      26863.453    
      1013   1573.7184      2.6881488      0              16.113808      26206.826    
Loop time of 2.05589 on 1 procs for 13 steps with 67 atoms

99.7% CPU use with 1 MPI tasks x 1 OpenMP threads

Minimization stats:
  Stopping criterion = linesearch alpha is zero
  Energy initial, next-to-last, final = 
      8.59000937397625    2.6881488409866    2.6881488409866
  Force two-norm initial, final = 4.9497856 0.36743616
  Force max component initial, final = 1.266112 0.14701947
  Final line search alpha, max atom move = 5.9604645e-08 8.7630434e-09
  Iterations, force evaluations = 13 76

MPI task timing breakdown:
Section |  min time  |  avg time  |  max time  |%varavg| %total
---------------------------------------------------------------
Pair    | 2.0494     | 2.0494     | 2.0494     |   0.0 | 99.68
Neigh   | 0.00086327 | 0.00086327 | 0.00086327 |   0.0 |  0.04
Comm    | 0.0028742  | 0.0028742  | 0.0028742  |   0.0 |  0.14
Output  | 0.0020095  | 0.0020095  | 0.0020095  |   0.0 |  0.10
Modify  | 0          | 0          | 0          |   0.0 |  0.00
Other   |            | 0.0007701  |            |       |  0.04

Nlocal:             67 ave          67 max          67 min
Histogram: 1 0 0 0 0 0 0 0 0 0
Nghost:          10023 ave       10023 max       10023 min
Histogram: 1 0 0 0 0 0 0 0 0 0
Neighs:            773 ave         773 max         773 min
Histogram: 1 0 0 0 0 0 0 0 0 0
FullNghs:        36418 ave       36418 max       36418 min
Histogram: 1 0 0 0 0 0 0 0 0 0

Total # of neighbors = 36418
Ave neighs/atom = 543.55224
Neighbor list builds = 1
Dangerous builds = 0
write_data ./StructureDump/sample.1.dat 
System init for write_data ...
variable etot equal etotal
variable ptot equal press
variable pairp equal epair
variable numat equal atoms
run 0
WARNING: No fixes with time integration, atoms won't move (src/verlet.cpp:60)
Per MPI rank memory allocation (min/avg/max) = 12.66 | 12.66 | 12.66 Mbytes
   Step          Temp          E_pair         E_mol          TotEng         Press     
      1013   1573.7184      2.6881488      0              16.113808      26043.031    
Loop time of 1.8808e-05 on 1 procs for 0 steps with 67 atoms

132.9% CPU use with 1 MPI tasks x 1 OpenMP threads

MPI task timing breakdown:
Section |  min time  |  avg time  |  max time  |%varavg| %total
---------------------------------------------------------------
Pair    | 0          | 0          | 0          |   0.0 |  0.00
Neigh   | 0          | 0          | 0          |   0.0 |  0.00
Comm    | 0          | 0          | 0          |   0.0 |  0.00
Output  | 0          | 0          | 0          |   0.0 |  0.00
Modify  | 0          | 0          | 0          |   0.0 |  0.00
Other   |            | 1.881e-05  |            |       |100.00

Nlocal:             67 ave          67 max          67 min
Histogram: 1 0 0 0 0 0 0 0 0 0
Nghost:           9967 ave        9967 max        9967 min
Histogram: 1 0 0 0 0 0 0 0 0 0
Neighs:            800 ave         800 max         800 min
Histogram: 1 0 0 0 0 0 0 0 0 0
FullNghs:        36338 ave       36338 max       36338 min
Histogram: 1 0 0 0 0 0 0 0 0 0

Total # of neighbors = 36338
Ave neighs/atom = 542.35821
Neighbor list builds = 0
Dangerous builds = 0
print "${etot} ${pairp} ${ptot} ${numat} " append Summary.dat screen no
Total wall time: 0:00:33
