mass 1 180.947880
pair_style hybrid/overlay soft 2.720 mliap model mliappy LATER descriptor ace coupling_coefficients.yace
Loading python model deferred.
pair_coeff * * soft 1.000000
pair_coeff * * mliap   Ta

thermo 10
velocity all create 1. 4928459 dist gaussian
Loading python model complete.
dump    r3 all xyz 1 dyn_3.xyz
velocity all create 800.0 4928459 loop geom
fix  a1  all nve
run 1000
Neighbor list info ...
  update: every = 1 steps, delay = 0 steps, check = yes
  max neighbors/atom: 2000, page size: 100000
  master list distance cutoff = 13.209389
  ghost atom cutoff = 13.209389
  binsize = 6.6046944, bins = 4 3 10
  2 neighbor lists, perpetual/occasional/extra = 2 0 0
  (1) pair soft, perpetual, half/full trim from (2)
      attributes: half, newton on, cut 4.720000000000001
      pair build: halffull/trim/newton/tri
      stencil: none
      bin: none
  (2) pair mliap, perpetual
      attributes: full, newton on
      pair build: full/bin/atomonly
      stencil: full/bin/3d
      bin: standard
Per MPI rank memory allocation (min/avg/max) = 7.219 | 7.219 | 7.219 Mbytes
   Step          Temp          E_pair         E_mol          TotEng         Press     
         0   800            18.882233      0              23.535598      75539.312    
        10   846.97052      18.567029      0              23.493608      75686.15     
        20   934.9812       18.065014      0              23.503525      75847.952    
        30   1060.4054      17.346144      0              23.514211      75843.822    
        40   1216.6617      16.421603      0              23.498566      75919.327    
        50   1395.3149      15.368703      0              23.484841      75288.4      
        60   1586.3697      14.261295      0              23.488742      74301.494    
        70   1776.8825      13.168239      0              23.503843      73123.786    
        80   1956.6893      12.113573      0              23.495061      71786.795    
        90   2116.171       11.214236      0              23.523382      65853.103    
       100   2242.3629      10.432348      0              23.475515      64711.127    
       110   2328.5388      9.8994299      0              23.443857      63518.866    
       120   2373.4732      9.6279652      0              23.433762      61974.223    
       130   2381.6679      9.5728505      0              23.426314      61099.454    
       140   2370.1186      9.719439       0              23.505723      61184.769    
       150   2352.7166      9.8620968      0              23.547159      61226.321    
       160   2338.8593      10.006464      0              23.610923      61652.194    
       170   2331.085       10.031731      0              23.590968      61782.988    
       180   2329.9479      10.039196      0              23.591819      61739.094    
       190   2331.5907      10.032227      0              23.594407      61823.657    
       200   2335.0997      9.9824994      0              23.565089      61359.043    
       210   2336.2665      9.9888406      0              23.578217      61167.443    
       220   2330.2716      10.024373      0              23.578879      61472.018    
       230   2316.7199      10.141434      0              23.617114      61519.572    
       240   2296.5796      10.193668      0              23.552197      61538.37     
       250   2271.8329      10.34932       0              23.563905      61237.8      
       260   2239.2286      10.510597      0              23.535533      60262.75     
       270   2200.0198      10.735879      0              23.532748      58825.083    
       280   2158.3482      10.950261      0              23.50474       57170.961    
       290   2118.6396      11.196041      0              23.519546      55938.662    
       300   2088.1115      11.42672       0              23.572652      54964.347    
       310   2067.7711      11.521282      0              23.5489        54055.599    
       320   2054.8961      11.62799       0              23.580718      53807.31     
       330   2046.8662      11.642321      0              23.54834       53965.87     
       340   2042.9336      11.686104      0              23.569249      54229.94     
       350   2043.6731      11.688678      0              23.576124      54144.732    
       360   2049.9329      11.841366      0              23.765224      54858.081    
       370   2062.9023      11.763671      0              23.762969      54578.775    
       380   2083.0589      11.65347       0              23.770012      54723.565    
       390   2107.9993      11.51272       0              23.774333      55038.664    
       400   2132.497       11.375519      0              23.779628      55624.873    
       410   2158.2263      11.321392      0              23.875162      56103.35     
       420   2183.3603      11.158926      0              23.858892      55944.383    
       430   2204.4628      11.012713      0              23.835426      56090.058    
       440   2223.2328      10.964871      0              23.896763      56542.646    
       450   2244.4909      10.885227      0              23.940772      56889.234    
       460   2266.1381      10.755792      0              23.937252      57305.395    
       470   2288.5745      10.658686      0              23.970652      58037.892    
       480   2312.6129      10.511812      0              23.963603      58010.934    
       490   2337.0377      10.322907      0              23.916769      57920.519    
       500   2357.8221      10.252304      0              23.967063      57542.769    
       510   2376.6693      10.176397      0              24.000785      57298.511    
       520   2397.0858      10.152807      0              24.095951      57436.986    
       530   2418.3218      10.034493      0              24.101161      57060.887    
       540   2440.4796      9.8795355      0              24.075089      56984.051    
       550   2462.0589      9.7524362      0              24.07351       56909.373    
       560   2477.2553      9.6183106      0              24.027778      56449.085    
       570   2483.9376      9.5780321      0              24.026368      56089.37     
       580   2484.7719      9.5886531      0              24.041842      56910.33     
       590   2475.9516      9.6644271      0              24.066311      57346.432    
       600   2461.2333      9.7177043      0              24.033976      57592.962    
       610   2442.623       9.8107464      0              24.018767      58000.343    
       620   2423.5501      9.9300343      0              24.027114      58312.909    
       630   2400.2198      10.047572      0              24.008946      58298.27     
       640   2372.9657      10.288455      0              24.0913        58209.365    
       650   2346.3007      10.451229      0              24.098972      57877.625    
       660   2325.1307      10.56581       0              24.090413      57464.164    
       670   2310.8915      10.616051      0              24.057828      56954.656    
       680   2303.9513      10.663307      0              24.064716      56108.485    
       690   2305.7186      10.662478      0              24.074167      55489.498    
       700   2316.9191      10.596702      0              24.07354       54906.734    
       710   2333.516       10.509813      0              24.083191      54673.841    
       720   2354.1019      10.38931       0              24.08243       54327.09     
       730   2376.2874      10.261301      0              24.083467      53925.967    
       740   2396.6527      10.127423      0              24.068049      53721.973    
       750   2413.0244      10.071706      0              24.107561      53951.912    
       760   2420.8487      10.002092      0              24.083458      54229.598    
       770   2417.9957      10.050386      0              24.115157      54092.586    
       780   2405.781       10.151955      0              24.145678      53742.378    
       790   2384.7889      10.164242      0              24.035859      54059.542    
       800   2357.4903      10.35245       0              24.065279      54013.181    
       810   2325.983       10.549775      0              24.079336      54202.456    
       820   2295.6198      10.730758      0              24.083705      54714.776    
       830   2269.3962      10.885541      0              24.085953      55202.679    
       840   2246.7805      11.011377      0              24.08024       55573.646    
       850   2227.2729      11.11146       0              24.066853      55898.229    
       860   2210.0556      11.221039      0              24.076284      55701.89     
       870   2194.9758      11.311229      0              24.07876       55932.699    
       880   2181.6116      11.388274      0              24.078068      55427.897    
       890   2170.0011      11.314438      0              23.936698      54431.627    
       900   2164.1435      11.306664      0              23.894852      53796.329    
       910   2167.1184      11.290912      0              23.896404      53368.187    
       920   2178.2197      11.224798      0              23.894863      53093.395    
       930   2196.0823      11.170742      0              23.944709      52568.199    
       940   2221.4647      11.044287      0              23.965895      52400.896    
       950   2248.2368      10.948698      0              24.026032      53193.783    
       960   2271.1834      10.862541      0              24.073348      54006.341    
       970   2291.1381      10.757728      0              24.084606      54608.874    
       980   2308.1987      10.736184      0              24.162298      55496.467    
       990   2323.1181      10.627404      0              24.1403        56203.032    
      1000   2331.4426      10.724529      0              24.285847      57583.219    
Loop time of 19.2197 on 1 procs for 1000 steps with 46 atoms

Performance: 4.495 ns/day, 5.339 hours/ns, 52.030 timesteps/s, 2.393 katom-step/s
99.7% CPU use with 1 MPI tasks x 1 OpenMP threads

MPI task timing breakdown:
Section |  min time  |  avg time  |  max time  |%varavg| %total
---------------------------------------------------------------
Pair    | 19.126     | 19.126     | 19.126     |   0.0 | 99.51
Neigh   | 0.0051648  | 0.0051648  | 0.0051648  |   0.0 |  0.03
Comm    | 0.018285   | 0.018285   | 0.018285   |   0.0 |  0.10
Output  | 0.06637    | 0.06637    | 0.06637    |   0.0 |  0.35
Modify  | 0.0011043  | 0.0011043  | 0.0011043  |   0.0 |  0.01
Other   |            | 0.002761   |            |       |  0.01

Nlocal:             46 ave          46 max          46 min
Histogram: 1 0 0 0 0 0 0 0 0 0
Nghost:           4742 ave        4742 max        4742 min
Histogram: 1 0 0 0 0 0 0 0 0 0
Neighs:            536 ave         536 max         536 min
Histogram: 1 0 0 0 0 0 0 0 0 0
FullNghs:        24876 ave       24876 max       24876 min
Histogram: 1 0 0 0 0 0 0 0 0 0

Total # of neighbors = 24876
Ave neighs/atom = 540.78261
Neighbor list builds = 9
Dangerous builds = 0
unfix  a1
min_style  cg
min_modify  dmax 0.5 line quadratic
dump    a3 all xyz 1 min_3.xyz
minimize 1e-12 1e-12 10000 100000
Per MPI rank memory allocation (min/avg/max) = 9.39 | 9.39 | 9.39 Mbytes
   Step          Temp          E_pair         E_mol          TotEng         Press     
      1000   2331.4426      10.724771      0              24.286089      57587.741    
      1010   2331.4426      2.3478324      0              15.90915       23431.804    
      1014   2331.4426      2.2514078      0              15.812725      22627.258    
Loop time of 1.39808 on 1 procs for 14 steps with 46 atoms

99.8% CPU use with 1 MPI tasks x 1 OpenMP threads

Minimization stats:
  Stopping criterion = linesearch alpha is zero
  Energy initial, next-to-last, final = 
      10.7247713939236   2.25140784191218   2.25140784191218
  Force two-norm initial, final = 5.0962289 0.40465715
  Force max component initial, final = 1.4106345 0.14476173
  Final line search alpha, max atom move = 5.9604645e-08 8.6284712e-09
  Iterations, force evaluations = 14 74

MPI task timing breakdown:
Section |  min time  |  avg time  |  max time  |%varavg| %total
---------------------------------------------------------------
Pair    | 1.3941     | 1.3941     | 1.3941     |   0.0 | 99.72
Neigh   | 0.00055363 | 0.00055363 | 0.00055363 |   0.0 |  0.04
Comm    | 0.0013787  | 0.0013787  | 0.0013787  |   0.0 |  0.10
Output  | 0.0014685  | 0.0014685  | 0.0014685  |   0.0 |  0.11
Modify  | 0          | 0          | 0          |   0.0 |  0.00
Other   |            | 0.0005454  |            |       |  0.04

Nlocal:             46 ave          46 max          46 min
Histogram: 1 0 0 0 0 0 0 0 0 0
Nghost:           4728 ave        4728 max        4728 min
Histogram: 1 0 0 0 0 0 0 0 0 0
Neighs:            516 ave         516 max         516 min
Histogram: 1 0 0 0 0 0 0 0 0 0
FullNghs:        24840 ave       24840 max       24840 min
Histogram: 1 0 0 0 0 0 0 0 0 0

Total # of neighbors = 24840
Ave neighs/atom = 540
Neighbor list builds = 1
Dangerous builds = 0
write_data ./StructureDump/sample.3.dat 
System init for write_data ...
variable etot equal etotal
variable ptot equal press
variable pairp equal epair
variable numat equal atoms
run 0
WARNING: No fixes with time integration, atoms won't move (src/verlet.cpp:60)
Per MPI rank memory allocation (min/avg/max) = 9.269 | 9.269 | 9.269 Mbytes
   Step          Temp          E_pair         E_mol          TotEng         Press     
      1014   2331.4426      2.2514078      0              15.812725      22502.385    
Loop time of 2.2586e-05 on 1 procs for 0 steps with 46 atoms

88.6% CPU use with 1 MPI tasks x 1 OpenMP threads

MPI task timing breakdown:
Section |  min time  |  avg time  |  max time  |%varavg| %total
---------------------------------------------------------------
Pair    | 0          | 0          | 0          |   0.0 |  0.00
Neigh   | 0          | 0          | 0          |   0.0 |  0.00
Comm    | 0          | 0          | 0          |   0.0 |  0.00
Output  | 0          | 0          | 0          |   0.0 |  0.00
Modify  | 0          | 0          | 0          |   0.0 |  0.00
Other   |            | 2.259e-05  |            |       |100.00

Nlocal:             46 ave          46 max          46 min
Histogram: 1 0 0 0 0 0 0 0 0 0
Nghost:           4708 ave        4708 max        4708 min
Histogram: 1 0 0 0 0 0 0 0 0 0
Neighs:            522 ave         522 max         522 min
Histogram: 1 0 0 0 0 0 0 0 0 0
FullNghs:        24764 ave       24764 max       24764 min
Histogram: 1 0 0 0 0 0 0 0 0 0

Total # of neighbors = 24764
Ave neighs/atom = 538.34783
Neighbor list builds = 0
Dangerous builds = 0
print "${etot} ${pairp} ${ptot} ${numat} " append Summary.dat screen no
Total wall time: 0:00:21
