mass 1 180.947880
pair_style hybrid/overlay soft 2.720 mliap model mliappy LATER descriptor ace coupling_coefficients.yace
Loading python model deferred.
pair_coeff * * soft 1.000000
pair_coeff * * mliap   Ta

thermo 10
velocity all create 1. 4928459 dist gaussian
Loading python model complete.
dump    r4 all xyz 1 dyn_4.xyz
velocity all create 800.0 4928459 loop geom
fix  a1  all nve
run 1000
Neighbor list info ...
  update: every = 1 steps, delay = 0 steps, check = yes
  max neighbors/atom: 2000, page size: 100000
  master list distance cutoff = 13.209389
  ghost atom cutoff = 13.209389
  binsize = 6.6046944, bins = 2 5 1
  2 neighbor lists, perpetual/occasional/extra = 2 0 0
  (1) pair soft, perpetual, half/full trim from (2)
      attributes: half, newton on, cut 4.720000000000001
      pair build: halffull/trim/newton/tri
      stencil: none
      bin: none
  (2) pair mliap, perpetual
      attributes: full, newton on
      pair build: full/bin/atomonly
      stencil: full/bin/3d
      bin: standard
Per MPI rank memory allocation (min/avg/max) = 6.759 | 6.759 | 6.759 Mbytes
   Step          Temp          E_pair         E_mol          TotEng         Press     
         0   800            16.834202      0              21.280751      60702.928    
        10   816.16692      16.753129      0              21.289537      60198.391    
        20   878.49576      16.406673      0              21.289516      59749.127    
        30   980.86208      15.844202      0              21.296016      59270.386    
        40   1114.3859      15.149879      0              21.343843      58866.646    
        50   1267.9491      14.296669      0              21.344166      58127.719    
        60   1431.3167      13.36615       0              21.321675      57100.609    
        70   1595.5666      12.514124      0              21.38258       56584.593    
        80   1754.3318      11.587285      0              21.338188      56076.124    
        90   1900.396       10.750884      0              21.313638      55538.413    
       100   2024.5477      10.108132      0              21.360945      55216.217    
       110   2118.0645      9.5521737      0              21.324771      54212.616    
       120   2180.8093      9.2100429      0              21.331387      53261.853    
       130   2209.5743      9.1473412      0              21.428567      52381.05     
       140   2208.2148      9.2236613      0              21.497331      51753.855    
       150   2187.7637      9.2833985      0              21.443396      51419.367    
       160   2156.5824      9.4737074      0              21.460394      51425.203    
       170   2120.589       9.6660187      0              21.452647      51450.061    
       180   2086.3502      9.908599       0              21.504922      51695.169    
       190   2054.3789      10.112279      0              21.5309        52087.059    
       200   2023.5642      10.250414      0              21.497761      52326.009    
       210   1995.5592      10.410349      0              21.502038      52849.023    
       220   1969.6813      10.550752      0              21.498607      53024.789    
       230   1947.7572      10.604526      0              21.430524      53671.018    
       240   1932.6698      10.626905      0              21.369044      53299.984    
       250   1925.9288      10.659023      0              21.363694      53019.372    
       260   1929.323       10.701472      0              21.425009      52717.833    
       270   1939.7491      10.669686      0              21.451173      52195.052    
       280   1955.403       10.556217      0              21.424711      51643.006    
       290   1979.2571      10.438862      0              21.439941      51460.714    
       300   2011.0097      10.2498        0              21.427367      51010.92     
       310   2047.3013      10.096688      0              21.475969      50478.188    
       320   2084.3244      9.8546845      0              21.439748      50076.894    
       330   2119.9482      9.6540832      0              21.43715       49947.743    
       340   2153.8927      9.4329524      0              21.404689      49994.274    
       350   2186.3081      9.2875632      0              21.439471      50766.904    
       360   2208.5848      9.3390531      0              21.614779      52135.039    
       370   2217.1873      9.3104945      0              21.634034      52424.317    
       380   2214.135       9.2804331      0              21.587008      52843.821    
       390   2200.3087      9.306572       0              21.536297      53471.404    
       400   2180.8749      9.4644133      0              21.586122      53953.084    
       410   2156.2611      9.6103083      0              21.595209      54405.495    
       420   2124.8781      9.7665704      0              21.577039      54667.12     
       430   2089.1461      9.97938        0              21.591243      55095.576    
       440   2052.4557      10.225568      0              21.6335        55352.545    
       450   2018.4207      10.424091      0              21.642849      55790.867    
       460   1987.6937      10.662792      0              21.710764      56213.383    
       470   1960.9529      10.781865      0              21.681206      56354.268    
       480   1941.2735      10.898517      0              21.688477      56533.143    
       490   1928.817       10.964514      0              21.685238      56245.728    
       500   1924.481       10.961358      0              21.657981      55440.597    
       510   1926.4575      10.984702      0              21.692311      54444.517    
       520   1936.2512      10.915529      0              21.677574      53437.057    
       530   1952.2459      10.804646      0              21.655592      52815.1      
       540   1973.9209      10.687395      0              21.658815      52438.5      
       550   1998.7362      10.477116      0              21.586465      51767.426    
       560   2027.3895      10.344605      0              21.613213      50975.791    
       570   2061.1842      10.168402      0              21.624848      50559.552    
       580   2095.9222      10.086264      0              21.73579       50892.029    
       590   2130.5291      9.8442318      0              21.686109      49945.884    
       600   2165.8537      9.6262377      0              21.664456      49120.24     
       610   2200.0789      9.458073       0              21.686521      48447.437    
       620   2230.6793      9.3111056      0              21.709636      48189.845    
       630   2254.6744      9.1599838      0              21.691884      48496.368    
       640   2268.6796      9.0895757      0              21.699319      49144.583    
       650   2267.8827      9.0974466      0              21.702761      49570.838    
       660   2251.7328      9.1693096      0              21.68486       50531.74     
       670   2218.8666      9.365622       0              21.698496      50938.019    
       680   2173.1704      9.59945        0              21.678336      51546.674    
       690   2120.9892      9.838597       0              21.62745       51940.512    
       700   2067.2258      10.134802      0              21.624828      51890.67     
       710   2015.3814      10.413777      0              21.615642      51386.026    
       720   1969.933       10.663995      0              21.61325       50929.874    
       730   1935.1835      10.886561      0              21.642672      50681.601    
       740   1914.8065      10.992135      0              21.634986      49963.216    
       750   1908.0654      11.006063      0              21.611445      49092.386    
       760   1913.2305      11.008864      0              21.642955      48511.836    
       770   1928.3334      10.899498      0              21.617534      47629.947    
       780   1951.1856      10.818799      0              21.663852      47367.918    
       790   1979.107       10.539506      0              21.539751      46698.284    
       800   2011.2407      10.354767      0              21.533618      46474.506    
       810   2046.2847      10.153684      0              21.527316      46470.696    
       820   2080.451       9.9226159      0              21.48615       46841.832    
       830   2109.5277      9.8617039      0              21.586852      47589.82     
       840   2129.6813      9.7634812      0              21.600646      48114.553    
       850   2140.0423      9.7332153      0              21.627969      48609.785    
       860   2141.3751      9.6849481      0              21.58711       49448.084    
       870   2135.2792      9.6965212      0              21.5648        50200.671    
       880   2122.0032      9.7484617      0              21.542951      51385.416    
       890   2098.9315      9.9508764      0              21.617129      52627.84     
       900   2065.0963      9.9626493      0              21.440839      52797.754    
       910   2020.8068      10.214756      0              21.446777      53580.256    
       920   1968.2069      10.532583      0              21.472243      54484.708    
       930   1912.7966      10.829072      0              21.460752      54968.393    
       940   1860.8985      11.133085      0              21.476306      55133.359    
       950   1818.6369      11.35492       0              21.463242      54879.069    
       960   1794.3082      11.424017      0              21.397117      54528.801    
       970   1792.1425      11.494366      0              21.455427      54512.107    
       980   1811.2889      11.330275      0              21.397756      54038.207    
       990   1851.4786      11.200728      0              21.491591      53818.593    
      1000   1909.385       10.887818      0              21.500535      53070.761    
Loop time of 17.901 on 1 procs for 1000 steps with 44 atoms

Performance: 4.827 ns/day, 4.973 hours/ns, 55.863 timesteps/s, 2.458 katom-step/s
99.7% CPU use with 1 MPI tasks x 1 OpenMP threads

MPI task timing breakdown:
Section |  min time  |  avg time  |  max time  |%varavg| %total
---------------------------------------------------------------
Pair    | 17.825     | 17.825     | 17.825     |   0.0 | 99.58
Neigh   | 0.0047484  | 0.0047484  | 0.0047484  |   0.0 |  0.03
Comm    | 0.012922   | 0.012922   | 0.012922   |   0.0 |  0.07
Output  | 0.054863   | 0.054863   | 0.054863   |   0.0 |  0.31
Modify  | 0.0010711  | 0.0010711  | 0.0010711  |   0.0 |  0.01
Other   |            | 0.002286   |            |       |  0.01

Nlocal:             44 ave          44 max          44 min
Histogram: 1 0 0 0 0 0 0 0 0 0
Nghost:           3268 ave        3268 max        3268 min
Histogram: 1 0 0 0 0 0 0 0 0 0
Neighs:            487 ave         487 max         487 min
Histogram: 1 0 0 0 0 0 0 0 0 0
FullNghs:        23478 ave       23478 max       23478 min
Histogram: 1 0 0 0 0 0 0 0 0 0

Total # of neighbors = 23478
Ave neighs/atom = 533.59091
Neighbor list builds = 9
Dangerous builds = 0
unfix  a1
min_style  cg
min_modify  dmax 0.5 line quadratic
dump    a4 all xyz 1 min_4.xyz
minimize 1e-12 1e-12 10000 100000
Per MPI rank memory allocation (min/avg/max) = 8.903 | 8.903 | 8.903 Mbytes
   Step          Temp          E_pair         E_mol          TotEng         Press     
      1000   1909.385       10.775809      0              21.388526      52787.136    
      1010   1909.385       2.0215352      0              12.634253      12644.945    
      1017   1909.385       1.8328046      0              12.445522      9273.7264    
Loop time of 1.48677 on 1 procs for 17 steps with 44 atoms

99.8% CPU use with 1 MPI tasks x 1 OpenMP threads

Minimization stats:
  Stopping criterion = linesearch alpha is zero
  Energy initial, next-to-last, final = 
      10.7758085068578   1.83280459113451   1.83280459113451
  Force two-norm initial, final = 5.6345444 0.3042889
  Force max component initial, final = 1.2705892 0.077134226
  Final line search alpha, max atom move = 1.1920929e-07 9.1951163e-09
  Iterations, force evaluations = 17 82

MPI task timing breakdown:
Section |  min time  |  avg time  |  max time  |%varavg| %total
---------------------------------------------------------------
Pair    | 1.4831     | 1.4831     | 1.4831     |   0.0 | 99.76
Neigh   | 0.00050989 | 0.00050989 | 0.00050989 |   0.0 |  0.03
Comm    | 0.001116   | 0.001116   | 0.001116   |   0.0 |  0.08
Output  | 0.0014472  | 0.0014472  | 0.0014472  |   0.0 |  0.10
Modify  | 0          | 0          | 0          |   0.0 |  0.00
Other   |            | 0.0005457  |            |       |  0.04

Nlocal:             44 ave          44 max          44 min
Histogram: 1 0 0 0 0 0 0 0 0 0
Nghost:           3372 ave        3372 max        3372 min
Histogram: 1 0 0 0 0 0 0 0 0 0
Neighs:            482 ave         482 max         482 min
Histogram: 1 0 0 0 0 0 0 0 0 0
FullNghs:        23466 ave       23466 max       23466 min
Histogram: 1 0 0 0 0 0 0 0 0 0

Total # of neighbors = 23466
Ave neighs/atom = 533.31818
Neighbor list builds = 1
Dangerous builds = 0
write_data ./StructureDump/sample.4.dat 
System init for write_data ...
variable etot equal etotal
variable ptot equal press
variable pairp equal epair
variable numat equal atoms
run 0
WARNING: No fixes with time integration, atoms won't move (src/verlet.cpp:60)
Per MPI rank memory allocation (min/avg/max) = 8.782 | 8.782 | 8.782 Mbytes
   Step          Temp          E_pair         E_mol          TotEng         Press     
      1017   1909.385       1.8328046      0              12.445522      9260.3385    
Loop time of 3.6198e-05 on 1 procs for 0 steps with 44 atoms

0.0% CPU use with 1 MPI tasks x 1 OpenMP threads

MPI task timing breakdown:
Section |  min time  |  avg time  |  max time  |%varavg| %total
---------------------------------------------------------------
Pair    | 0          | 0          | 0          |   0.0 |  0.00
Neigh   | 0          | 0          | 0          |   0.0 |  0.00
Comm    | 0          | 0          | 0          |   0.0 |  0.00
Output  | 0          | 0          | 0          |   0.0 |  0.00
Modify  | 0          | 0          | 0          |   0.0 |  0.00
Other   |            | 3.62e-05   |            |       |100.00

Nlocal:             44 ave          44 max          44 min
Histogram: 1 0 0 0 0 0 0 0 0 0
Nghost:           3382 ave        3382 max        3382 min
Histogram: 1 0 0 0 0 0 0 0 0 0
Neighs:            465 ave         465 max         465 min
Histogram: 1 0 0 0 0 0 0 0 0 0
FullNghs:        23400 ave       23400 max       23400 min
Histogram: 1 0 0 0 0 0 0 0 0 0

Total # of neighbors = 23400
Ave neighs/atom = 531.81818
Neighbor list builds = 0
Dangerous builds = 0
print "${etot} ${pairp} ${ptot} ${numat} " append Summary.dat screen no
Total wall time: 0:00:19
