ats_140.data (written by ASE) 

6 	 atoms 
2  atom types
0.0      2.5173001410241089  xlo xhi
0.0       4.360091742154057  ylo yhi
0.0      6.1661008749452026  zlo zhi
-2.2204460492503131e-16     -1.2586500705120542     -2.1800458710770272  xy xz yz


Atoms 

     1   1                       0                       0                       0
     2   1      1.2586500705120542    -0.72668195702567528      4.1107339166301351
     3   1      1.2586500705120547     0.72668195702567684      2.0553669583150667
     4   1      1.2586500705120547      2.1800458710770281 -3.0821306326852996e-16
     5   2  1.2040456797016969e-16       1.453363914051353      4.1107339166301351
     6   2 -1.0757750162748332e-15      2.9067278281027047       2.055366958315068
