ats_37.data (written by ASE) 

6 	 atoms 
2  atom types
0.0      2.5173001410241094  xlo xhi
0.0      5.0346002820482179  ylo yhi
0.0       5.339999999999999  zlo zhi
-5.1729856564647822e-16     -1.2586500705120542     -1.2586500705120547  xy xz yz


Atoms 

     1   1                       0                       0                       0
     2   1 -8.6355085227607584e-18 -1.8719260310773486e-16      3.5599999999999992
     3   2      1.2586500705120545      1.2586500705120545      1.7799999999999994
     4   2 -1.0164003695486162e-16      2.5173001410241085 -4.7869369694202953e-16
     5   2  5.5369208913515872e-17      2.5173001410241085      3.5599999999999987
     6   2      1.2586500705120562      3.7759502115361627      1.7799999999999994
