ats_19.data (written by ASE) 

5 	 atoms 
2  atom types
0.0      2.8799999999999999  xlo xhi
0.0      4.5536798306424657  ylo yhi
0.0      4.5536798306424666  zlo zhi
     1.4399999999999995     -1.4399999999999997 -1.3322676295501878e-15  xy xz yz


Atoms 

     1   1                       0                       0                       0
     2   1      1.4399999999999997      1.8214719322569866     0.91073596612849361
     3   1      2.8799999999999994      3.6429438645139731      1.8214719322569872
     4   2      2.8799999999999999     0.91073596612849306      2.7322078983854805
     5   2      4.3199999999999994      2.7322078983854792      3.6429438645139736
