ats_86.data (written by ASE) 

6 	 atoms 
2  atom types
0.0      3.5600000000000001  xlo xhi
0.0      3.5600000000000005  ylo yhi
0.0      5.3399999999999999  zlo zhi
-8.8817841970012523e-16      1.7799999999999998  8.8817841970012523e-16  xy xz yz


Atoms 

     1   1                       0                       0                       0
     2   1      1.7799999999999998      1.7799999999999998      3.5599999999999996
     3   2                    1.78  2.5744669282731158e-16      1.7799999999999994
     4   2                    1.78      1.7800000000000005 -2.8107399855875169e-16
     5   2 -3.0420110874729282e-16 -4.3459232585570267e-16      3.5599999999999996
     6   2 -6.5836225360271819e-16      1.7800000000000014      1.7799999999999998
