ats_112.data (written by ASE) 

4 	 atoms 
2  atom types
0.0      2.5173001410241094  xlo xhi
0.0      4.1744700262428527  ylo yhi
0.0      4.2935215467873533  zlo zhi
    -1.2586500705120545 -4.4408920985006262e-16    -0.75899455022597351  xy xz yz


Atoms 

     1   1                       0                       0                       0
     2   1      1.2586500705120547      1.8974863755649323      1.0733803866968379
     3   2       1.258650070512054    -0.37949727511298659      2.1467607733936762
     4   2  2.4651903288156619e-32      1.5179891004519463      3.2201411600905154
