ats_17.data (written by ASE) 

4 	 atoms 
2  atom types
0.0      2.5173001410241094  xlo xhi
0.0       4.360091742154057  ylo yhi
0.0      4.1107339166301351  zlo zhi
                      0                       0     -1.4533639140513532  xy xz yz


Atoms 

     1   1                       0                       0                       0
     2   1      1.2586500705120542      2.1800458710770281  7.6021101145652605e-16
     3   1      1.2586500705120542    -0.72668195702567673       2.055366958315068
     4   2   1.854399270268235e-16      1.4533639140513519      2.0553669583150684
