ats_152.data (written by ASE) 

6 	 atoms 
2  atom types
0.0      2.8799999999999999  xlo xhi
0.0      4.0729350596345135  ylo yhi
0.0      6.1094025894517712  zlo zhi
                      0      1.4399999999999995  8.8817841970012523e-16  xy xz yz


Atoms 

     1   1                       0                       0                       0
     2   1      1.4399999999999999  4.3877808278794582e-16      2.0364675298172563
     3   1 -8.2896652505344952e-17  4.3346695572582902e-16      4.0729350596345126
     4   2      1.4399999999999995      2.0364675298172568 -1.3824471485306942e-16
     5   1 -7.2534570942176831e-17      2.0364675298172563      2.0364675298172559
     6   2      1.4399999999999997      2.0364675298172572      4.0729350596345126
