ats_4.data (written by ASE) 

6 	 atoms 
2  atom types
0.0      2.4941531628991829  xlo xhi
0.0      4.7030203061437028  ylo yhi
0.0      6.1094025894517703  zlo zhi
    0.83138438763306099     0.83138438763306155      1.1757550765359266  xy xz yz


Atoms 

     1   1                       0                       0                       0
     2   1     0.83138438763306122      1.1757550765359255      2.0364675298172563
     3   1      1.6627687752661224       2.351510153071851      4.0729350596345126
     4   1      1.6627687752661215      2.3515101530718505 -4.9504571882588879e-17
     5   2      2.4941531628991838      3.5272652296077758       2.036467529817255
     6   2      3.3255375505322435      4.7030203061437019      4.0729350596345117
