ats_57.data (written by ASE) 

3 	 atoms 
2  atom types
0.0      2.5173001410241094  xlo xhi
0.0      2.1800458710770285  ylo yhi
0.0      6.1661008749452018  zlo zhi
    -1.2586500705120545  4.4408920985006262e-16 -1.1102230246251565e-15  xy xz yz


Atoms 

     1   1                       0                       0                       0
     2   1 -5.5369208913515872e-17      1.4533639140513512      4.1107339166301351
     3   2      1.2586500705120545     0.72668195702567573      2.0553669583150671
