ats_78.data (written by ASE) 

6 	 atoms 
2  atom types
0.0      3.5599999999999996  xlo xhi
0.0      3.9802009999496257  ylo yhi
0.0      4.7762411999395509  zlo zhi
     1.7799999999999996                       0     -1.5920803999798498  xy xz yz


Atoms 

     1   1                       0                       0                       0
     2   1 -8.2156503822261583e-17      2.3881205999697754     0.79604019998992515
     3   1                    1.78     0.79604019998992503      1.5920803999798503
     4   2  6.9678746068019422e-16    -0.79604019998992581       2.388120599969775
     5   1 -8.2156503822261583e-17      1.5920803999798505      3.1841607999597006
     6   2      1.7800000000000005 -1.3548102904170283e-15      3.9802009999496253
