ats_120.data (written by ASE) 

6 	 atoms 
2  atom types
0.0      2.8799999999999999  xlo xhi
0.0      2.8799999999999994  ylo yhi
0.0      8.6400000000000006  zlo zhi


Atoms 

     1   1                       0                       0                       0
     2   1      1.4399999999999997      1.4399999999999999      1.4399999999999997
     3   1  1.9183851781790525e-16   1.918385178179053e-16      2.8799999999999994
     4   2      1.4399999999999995      1.4399999999999997      4.3199999999999994
     5   1  8.5501173786066528e-16  8.5501173786066548e-16      5.7599999999999989
     6   2      1.4399999999999999      1.4400000000000002      7.1999999999999993
