ats_65.data (written by ASE) 

6 	 atoms 
2  atom types
0.0      2.8799999999999999  xlo xhi
0.0      4.0729350596345135  ylo yhi
0.0      6.1094025894517703  zlo zhi
-8.8817841970012523e-16                       0     -2.0364675298172532  xy xz yz


Atoms 

     1   1                       0                       0                       0
     2   1      1.4399999999999997   1.072540805616746e-15      2.0364675298172568
     3   2  1.9183851781790525e-16  1.7009924013834293e-15      4.0729350596345135
     4   1      1.4399999999999995      2.0364675298172563  1.4310950977332551e-16
     5   2  8.5501173786066528e-16      2.0364675298172568      2.0364675298172568
     6   2      1.4399999999999999      2.0364675298172568      4.0729350596345144
