ats_74.data (written by ASE) 

6 	 atoms 
2  atom types
0.0      2.4941531628991829  xlo xhi
0.0      4.0729350596345135  ylo yhi
0.0      7.0545304592155551  zlo zhi


Atoms 

     1   1                       0                       0                       0
     2   1     0.83138438763306111      2.0364675298172581      1.1757550765359255
     3   1      1.6627687752661224  2.1016560804497215e-16      2.3515101530718514
     4   1 -9.9294542978751117e-16      2.0364675298172585      3.5272652296077762
     5   2     0.83138438763306088  1.3981182966443715e-15      4.7030203061437028
     6   2      1.6627687752661187      2.0364675298172581      5.8787753826796276
