ats_40.data (written by ASE) 

6 	 atoms 
2  atom types
0.0      2.5173001410241094  xlo xhi
0.0      2.1800458710770285  ylo yhi
0.0      12.332201749890405  zlo zhi
    -1.2586500705120545                       0 -2.2204460492503131e-15  xy xz yz


Atoms 

     1   1                       0                       0                       0
     2   2 -7.1332902694884801e-16      1.4533639140513506       10.27683479157534
     3   2      1.2586500705120545     0.72668195702567562      8.2214678332602702
     4   2 -1.8693208043019966e-16 -8.4842638505095521e-16      6.1661008749452044
     5   2 -2.3931698253696322e-16      1.4533639140513521      4.1107339166301342
     6   2      1.2586500705120549     0.72668195702567595      2.0553669583150671
