ats_33.data (written by ASE) 

2 	 atoms 
1  atom types
0.0      4.9883063257983657  xlo xhi
0.0      2.3515101530718505  ylo yhi
0.0      2.0364675298172572  zlo zhi
   -0.83138438763306155    -0.83138438763306155     -1.1757550765359253  xy xz yz


Atoms 

     1   1                       0                       0                       0
     2   1      2.4941531628991838 -9.6802383758344107e-17 -5.7748976484972494e-16
