ats_93.data (written by ASE) 

6 	 atoms 
2  atom types
0.0      2.5173001410241094  xlo xhi
0.0      2.5173001410241085  ylo yhi
0.0                   10.68  zlo zhi


Atoms 

     1   1                       0                       0                       0
     2   2       1.258650070512054      1.2586500705120529      8.8999999999999986
     3   1  2.8723849702405501e-16  -8.496882799588347e-16      7.1199999999999983
     4   2      1.2586500705120547      1.2586500705120534      5.3399999999999999
     5   2  4.9658415818189188e-16 -9.1030860324668884e-16      3.5599999999999983
     6   2      1.2586500705120549      1.2586500705120536      1.7799999999999989
