ats_176.data (written by ASE) 

4 	 atoms 
2  atom types
0.0      2.5173001410241094  xlo xhi
0.0      2.5173001410241094  ylo yhi
0.0      7.1200000000000001  zlo zhi


Atoms 

     1   1                       0                       0                       0
     2   1      1.2586500705120551      1.2586500705120545      5.3399999999999999
     3   1  8.6293906520810589e-16  -5.513157741692615e-17      3.5600000000000005
     4   2      1.2586500705120549       1.258650070512054      1.7799999999999998
