ats_100.data (written by ASE) 

4 	 atoms 
2  atom types
0.0      2.5173001410241094  xlo xhi
0.0      2.1800458710770285  ylo yhi
0.0      8.2214678332602702  zlo zhi
     1.2586500705120545      1.2586500705120542     0.72668195702567662  xy xz yz


Atoms 

     1   1                       0                       0                       0
     2   2      3.7759502115361641      2.1800458710770285      6.1661008749452044
     3   2      2.5173001410241085      1.4533639140513517      4.1107339166301369
     4   2      1.2586500705120542     0.72668195702567595      2.0553669583150671
