ats_151.data (written by ASE) 

3 	 atoms 
2  atom types
0.0      2.5173001410241094  xlo xhi
0.0      3.5600000000000001  ylo yhi
0.0      3.7759502115361636  zlo zhi
                      0      -1.258650070512054     -1.7799999999999998  xy xz yz


Atoms 

     1   1                       0                       0                       0
     2   2      1.2586500705120547                    1.78      1.2586500705120547
     3   2  3.6604677898207804e-17  -1.317464655888519e-16      2.5173001410241094
