ats_125.data (written by ASE) 

3 	 atoms 
2  atom types
0.0      2.5173001410241094  xlo xhi
0.0      2.5173001410241089  ylo yhi
0.0       5.339999999999999  zlo zhi
-2.5864928282323911e-16     -1.2586500705120542      1.2586500705120542  xy xz yz


Atoms 

     1   1                       0                       0                       0
     2   1 -8.7140131456949509e-17 -1.0868798017354611e-16      3.5599999999999992
     3   2      1.2586500705120545      1.2586500705120545      1.7799999999999994
