ats_161.data (written by ASE) 

4 	 atoms 
2  atom types
0.0      2.8799999999999999  xlo xhi
0.0      2.8799999999999999  ylo yhi
0.0      5.7599999999999998  zlo zhi


Atoms 

     1   2                       0                       0                       0
     2   1      1.4399999999999997      1.4399999999999997      1.4399999999999997
     3   2                       0                       0      2.8799999999999994
     4   1      1.4399999999999997      1.4399999999999997      4.3200000000000003
