ats_149.data (written by ASE) 

5 	 atoms 
2  atom types
0.0      4.0729350596345153  xlo xhi
0.0      3.5272652296077767  ylo yhi
0.0      4.1569219381653051  zlo zhi
     2.0364675298172572      2.0364675298172568      1.1757550765359244  xy xz yz


Atoms 

     1   1                       0                       0                       0
     2   2      6.1094025894517712      3.5272652296077767      2.4941531628991829
     3   2      4.0729350596345144      2.3515101530718514     0.83138438763306066
     4   2      4.0729350596345144      2.3515101530718505      3.3255375505322444
     5   2      2.0364675298172572      1.1757550765359253      1.6627687752661211
