ats_14.data (written by ASE) 

5 	 atoms 
2  atom types
0.0      2.8799999999999999  xlo xhi
0.0      2.8799999999999994  ylo yhi
0.0      7.1999999999999993  zlo zhi
                      0     -1.4399999999999993     -1.4399999999999997  xy xz yz


Atoms 

     1   1                       0                       0                       0
     2   1      1.4399999999999999      1.4400000000000002      1.4399999999999999
     3   2 -9.8587804586713877e-17 -9.8587804586713902e-17      2.8799999999999999
     4   2      1.4399999999999997      1.4399999999999999      4.3200000000000003
     5   2  2.4691360067663479e-16  2.4691360067663484e-16      5.7599999999999998
