ats_114.data (written by ASE) 

6 	 atoms 
2  atom types
0.0      4.0729350596345126  xlo xhi
0.0      4.0729350596345117  ylo yhi
0.0      4.3200000000000003  zlo zhi
                      0     -2.0364675298172559 -2.8769013915096585e-15  xy xz yz


Atoms 

     1   1                       0                       0                       0
     2   1 -3.7975394172476621e-17      2.0364675298172554      1.4399999999999997
     3   1   2.491213367778256e-16  -1.046728305789183e-15      2.8799999999999994
     4   1      2.0364675298172554      2.0364675298172572  2.5223063993885277e-16
     5   2      2.0364675298172563  1.9847948833942961e-15      1.4399999999999991
     6   2      2.0364675298172568      2.0364675298172581       2.879999999999999
