ats_180.data (written by ASE) 

4 	 atoms 
2  atom types
0.0      2.8799999999999999  xlo xhi
0.0      2.8799999999999994  ylo yhi
0.0      5.7599999999999998  zlo zhi


Atoms 

     1   1                       0                       0                       0
     2   1      1.4399999999999999      1.4400000000000002      1.4399999999999997
     3   2  1.6815375995923514e-16  1.6815375995923519e-16      2.8799999999999994
     4   2      1.4399999999999999      1.4400000000000002      4.3200000000000003
