ats_98.data (written by ASE) 

6 	 atoms 
2  atom types
0.0      2.5173001410241094  xlo xhi
0.0      4.1744700262428509  ylo yhi
0.0      6.4402823201810317  zlo zhi
     1.2586500705120538      1.2586500705120542      1.1384918253389591  xy xz yz


Atoms 

     1   1                       0                       0                       0
     2   1      2.5173001410241085      3.0359782009038914      5.3669019334841943
     3   1      2.5173001410241085     0.75899455022597284      4.2935215467873551
     4   1      1.2586500705120545      2.6564809257909059      3.2201411600905172
     5   1       1.258650070512054     0.37949727511298548      2.1467607733936767
     6   2      2.5173001410241111      2.2769836506779182      1.0733803866968397
