ats_106.data (written by ASE) 

6 	 atoms 
2  atom types
0.0      4.0729350596345144  xlo xhi
0.0      4.3199999999999994  ylo yhi
0.0      4.0729350596345153  zlo zhi
     2.0364675298172568     -2.0364675298172568      1.4400000000000024  xy xz yz


Atoms 

     1   1                       0                       0                       0
     2   2      4.0729350596345144      2.4000000000000004     0.67882250993908555
     3   2      2.0364675298172568     0.47999999999999993      1.3576450198781715
     4   2      2.0364675298172572      2.8800000000000008      2.0364675298172572
     5   2      4.0729350596345135     0.95999999999999897      2.7152900397563431
     6   2      4.0729350596345162      3.3599999999999999      3.3941125496954285
