ats_162.data (written by ASE) 

4 	 atoms 
2  atom types
0.0      2.4941531628991829  xlo xhi
0.0      2.3515101530718505  ylo yhi
0.0       8.145870119269027  zlo zhi
   -0.83138438763306155                       0  8.8817841970012523e-16  xy xz yz


Atoms 

     1   1                       0                       0                       0
     2   1     0.83138438763306099      1.1757550765359264      2.0364675298172563
     3   2 -3.9536569589248517e-16  7.1721403021825211e-16      4.0729350596345135
     4   2     0.83138438763306055      1.1757550765359268      6.1094025894517712
