ats_171.data (written by ASE) 

4 	 atoms 
2  atom types
0.0      2.4941531628991829  xlo xhi
0.0      4.0729350596345135  ylo yhi
0.0      4.7030203061437028  zlo zhi
-4.4408920985006262e-16    -0.83138438763306066 -2.2204460492503131e-16  xy xz yz


Atoms 

     1   1                       0                       0                       0
     2   1      1.6627687752661227      2.0364675298172576      1.1757550765359257
     3   1     0.83138438763306188 -1.0182444989638274e-15      2.3515101530718505
     4   2  2.9246119508630661e-16      2.0364675298172581      3.5272652296077771
