ats_28.data (written by ASE) 

3 	 atoms 
2  atom types
0.0      2.4941531628991829  xlo xhi
0.0      2.3515101530718505  ylo yhi
0.0      6.1094025894517721  zlo zhi
   -0.83138438763306155    -0.83138438763306155     -1.1757550765359248  xy xz yz


Atoms 

     1   1                       0                       0                       0
     2   1     0.83138438763306133      1.1757550765359261      2.0364675298172563
     3   2 -5.3261786836354282e-16  1.0670061286487186e-15      4.0729350596345135
