ats_133.data (written by ASE) 

8 	 atoms 
2  atom types
0.0      3.5600000000000001  xlo xhi
0.0      3.5600000000000001  ylo yhi
0.0      7.1200000000000001  zlo zhi


Atoms 

     1   1                       0                       0                       0
     2   1                       0                    1.78                    1.78
     3   2                    1.78                       0                    1.78
     4   2                    1.78                    1.78                       0
     5   2                       0                       0      3.5600000000000001
     6   1                       0                    1.78      5.3399999999999999
     7   2                    1.78                       0      5.3399999999999999
     8   1                    1.78                    1.78      3.5600000000000001
