ats_80.data (written by ASE) 

6 	 atoms 
2  atom types
0.0      2.4941531628991829  xlo xhi
0.0      2.3515101530718505  ylo yhi
0.0      12.218805178903542  zlo zhi
   -0.83138438763306155 -1.7763568394002505e-15                       0  xy xz yz


Atoms 

     1   1                       0                       0                       0
     2   1     0.83138438763306077      1.1757550765359259      2.0364675298172563
     3   2  -6.944932248854839e-16  2.9418382183720201e-16      4.0729350596345135
     4   1     0.83138438763306055      1.1757550765359259      6.1094025894517703
     5   2 -1.1168612325630358e-15  9.7321081651358578e-16       8.145870119269027
     6   2     0.83138438763306222      1.1757550765359279      10.182337649086284
