LAMMPS (7 Feb 2024 - Development - 3db1e5f0f6-modified)
OMP_NUM_THREADS environment is not set. Defaulting to 1 thread. (src/comm.cpp:98)
  using 1 OpenMP thread(s) per MPI task

units           metal
boundary        p p p

read_data  ats_187.data
Reading data file ...
  triclinic box = (0 0 0) to (2.5173001 5.0346003 5.34) with tilt (-5.1729857e-16 -1.2586501 -1.2586501)
  1 by 1 by 1 MPI processor grid
  reading atoms ...
  6 atoms
  read_data CPU = 0.007 seconds

log log_187.lammps
