mass 1 51.996100
mass 2 55.845000
pair_style hybrid/overlay soft 2.224 mliap model mliappy LATER descriptor ace coupling_coefficients.yace
Loading python model deferred.
pair_coeff * * soft 2.000000
pair_coeff * * mliap   Cr Fe

thermo 10
velocity all create 1. 4928459 dist gaussian
Loading python model complete.
velocity all create 300.0 4928459 loop geom
fix  a1  all nve
run 10 
Neighbor list info ...
  update: every = 1 steps, delay = 0 steps, check = yes
  max neighbors/atom: 2000, page size: 100000
  master list distance cutoff = 14.92
  ghost atom cutoff = 14.92
  binsize = 7.4600001, bins = 1 1 1
  2 neighbor lists, perpetual/occasional/extra = 2 0 0
  (1) pair soft, perpetual, half/full trim from (2)
      attributes: half, newton on, cut 4.224
      pair build: halffull/trim/newton
      stencil: none
      bin: none
  (2) pair mliap, perpetual
      attributes: full, newton on
      pair build: full/bin/atomonly
      stencil: full/bin/3d
      bin: standard
Per MPI rank memory allocation (min/avg/max) = 3.952 | 3.952 | 3.952 Mbytes
   Step          Temp          E_pair         E_mol          TotEng         Press     
         0   300           -11.982392      0             -11.866058     -312695.38    
        10   333.63565     -11.995435      0             -11.866057     -313965.78    
Loop time of 0.149468 on 1 procs for 10 steps with 4 atoms

Performance: 5.781 ns/day, 4.152 hours/ns, 66.904 timesteps/s, 267.617 atom-step/s
110.2% CPU use with 1 MPI tasks x 1 OpenMP threads

MPI task timing breakdown:
Section |  min time  |  avg time  |  max time  |%varavg| %total
---------------------------------------------------------------
Pair    | 0.14923    | 0.14923    | 0.14923    |   0.0 | 99.84
Neigh   | 0          | 0          | 0          |   0.0 |  0.00
Comm    | 0.00013377 | 0.00013377 | 0.00013377 |   0.0 |  0.09
Output  | 1.1224e-05 | 1.1224e-05 | 1.1224e-05 |   0.0 |  0.01
Modify  | 7.699e-06  | 7.699e-06  | 7.699e-06  |   0.0 |  0.01
Other   |            | 8.742e-05  |            |       |  0.06

Nlocal:              4 ave           4 max           4 min
Histogram: 1 0 0 0 0 0 0 0 0 0
Nghost:           3320 ave        3320 max        3320 min
Histogram: 1 0 0 0 0 0 0 0 0 0
Neighs:             52 ave          52 max          52 min
Histogram: 1 0 0 0 0 0 0 0 0 0
FullNghs:         4696 ave        4696 max        4696 min
Histogram: 1 0 0 0 0 0 0 0 0 0

Total # of neighbors = 4696
Ave neighs/atom = 1174
Neighbor list builds = 0
Dangerous builds = 0
unfix  a1
min_style  cg
min_modify  dmax 0.000500 line backtrack
minimize 1e-12 1e-12 10000 100000
Per MPI rank memory allocation (min/avg/max) = 5.077 | 5.077 | 5.077 Mbytes
   Step          Temp          E_pair         E_mol          TotEng         Press     
        10   333.63565     -11.974799      0             -11.845422     -317571.65    
        20   333.63565     -11.977659      0             -11.848282     -317906.49    
        30   333.63565     -11.980486      0             -11.851109     -318226.68    
        40   333.63565     -11.983282      0             -11.853905     -318543.78    
        50   333.63565     -11.986047      0             -11.856669     -318868.86    
        60   333.63565     -11.988781      0             -11.859404     -319198.56    
        70   333.63565     -11.991486      0             -11.862108     -319531.29    
        80   333.63565     -11.994161      0             -11.864783     -319863.87    
        90   333.63565     -11.996809      0             -11.867432     -320200.89    
       100   333.63565     -11.999428      0             -11.87005      -320538.29    
       110   333.63565     -12.002023      0             -11.872645     -320865.5     
       120   333.63565     -12.004591      0             -11.875214     -321194.18    
       130   333.63565     -12.007136      0             -11.877759     -321520.75    
       140   333.63565     -12.009658      0             -11.88028      -321845.23    
       150   333.63565     -12.012157      0             -11.88278      -322173.72    
       160   333.63565     -12.014637      0             -11.88526      -322504.85    
       170   333.63565     -12.017097      0             -11.88772      -322831.32    
       180   333.63565     -12.01954       0             -11.890162     -323148.19    
       190   333.63565     -12.021965      0             -11.892588     -323474.03    
       200   333.63565     -12.024379      0             -11.895001     -323821.91    
       210   333.63565     -12.02678       0             -11.897403     -324187.64    
       220   333.63565     -12.029169      0             -11.899792     -324567.83    
       230   333.63565     -12.031542      0             -11.902164     -324948.3     
       240   333.63565     -12.033898      0             -11.904521     -325336.75    
       250   333.63565     -12.036242      0             -11.906864     -325727.08    
       260   333.63565     -12.038569      0             -11.909192     -326114.47    
       270   333.63565     -12.040865      0             -11.911488     -326490.03    
       280   333.63565     -12.043112      0             -11.913734     -326863.43    
       290   333.63565     -12.045316      0             -11.915938     -327241.45    
       300   333.63565     -12.047479      0             -11.918101     -327625.75    
       310   333.63565     -12.049604      0             -11.920227     -327991.39    
       320   333.63565     -12.051695      0             -11.922317     -328347.69    
       330   333.63565     -12.053751      0             -11.924374     -328701.49    
       340   333.63565     -12.055776      0             -11.926398     -329063.24    
       350   333.63565     -12.05777       0             -11.928392     -329411.88    
       360   333.63565     -12.059736      0             -11.930359     -329770.53    
       370   333.63565     -12.061676      0             -11.932299     -330151.63    
       380   333.63565     -12.063591      0             -11.934214     -330534.76    
       390   333.63565     -12.065483      0             -11.936106     -330913.37    
       400   333.63565     -12.067353      0             -11.937976     -331287.59    
       410   333.63565     -12.069202      0             -11.939825     -331657.6     
       420   333.63565     -12.071032      0             -11.941654     -332023.52    
       430   333.63565     -12.072844      0             -11.943466     -332385.5     
       440   333.63565     -12.074637      0             -11.94526      -332747.2     
       450   333.63565     -12.076415      0             -11.947038     -333118.39    
       460   333.63565     -12.078178      0             -11.948801     -333473.66    
       470   333.63565     -12.079926      0             -11.950549     -333829.78    
       480   333.63565     -12.081661      0             -11.952284     -334182.53    
       490   333.63565     -12.083385      0             -11.954007     -334531.99    
       500   333.63565     -12.085094      0             -11.955717     -334878.29    
       510   333.63565     -12.086795      0             -11.957417     -335221.52    
       520   333.63565     -12.088483      0             -11.959105     -335561.8     
       530   333.63565     -12.090162      0             -11.960785     -335899.21    
       540   333.63565     -12.091833      0             -11.962456     -336241.53    
       550   333.63565     -12.093494      0             -11.964117     -336594.28    
       560   333.63565     -12.095144      0             -11.965767     -336930.63    
       570   333.63565     -12.09671       0             -11.967332     -336649.08    
       580   333.63565     -12.097769      0             -11.968391     -336210.73    
       590   333.63565     -12.098533      0             -11.969156     -336008.17    
       600   333.63565     -12.099172      0             -11.969795     -335946.03    
       610   333.63565     -12.099756      0             -11.970379     -335968.24    
       620   333.63565     -12.100308      0             -11.970931     -336041.01    
       630   333.63565     -12.10084       0             -11.971463     -336143.5     
       640   333.63565     -12.101355      0             -11.971977     -336262.87    
       650   333.63565     -12.101854      0             -11.972477     -336391.3     
       660   333.63565     -12.102338      0             -11.972961     -336524.06    
       670   333.63565     -12.102809      0             -11.973432     -336658.4     
       680   333.63565     -12.103267      0             -11.97389      -336792.67    
       690   333.63565     -12.103713      0             -11.974335     -336925.95    
       700   333.63565     -12.104146      0             -11.974768     -337057.75    
       710   333.63565     -12.104566      0             -11.975189     -337187.77    
       720   333.63565     -12.104977      0             -11.9756       -337315.92    
       730   333.63565     -12.105376      0             -11.975999     -337442.12    
       740   333.63565     -12.105767      0             -11.976389     -337566.38    
       750   333.63565     -12.106146      0             -11.976768     -337688.69    
       760   333.63565     -12.106516      0             -11.977139     -337809.11    
       770   333.63565     -12.106878      0             -11.977501     -337927.67    
       780   333.63565     -12.107233      0             -11.977855     -338044.41    
       790   333.63565     -12.107579      0             -11.978202     -338159.36    
       800   333.63565     -12.107916      0             -11.978539     -338272.58    
       810   333.63565     -12.108248      0             -11.978871     -338384.13    
       820   333.63565     -12.108573      0             -11.979195     -338494.05    
       830   333.63565     -12.10889       0             -11.979513     -338602.4     
       840   333.63565     -12.109205      0             -11.979828     -338709.24    
       850   333.63565     -12.109512      0             -11.980135     -338814.62    
       860   333.63565     -12.109814      0             -11.980437     -338918.61    
       870   333.63565     -12.110112      0             -11.980734     -339021.26    
       880   333.63565     -12.110403      0             -11.981026     -339054.19    
       890   333.63565     -12.110681      0             -11.981303     -338815.08    
       900   333.63565     -12.110978      0             -11.9816       -338792.58    
       910   333.63565     -12.11129       0             -11.981913     -338880.14    
       920   333.63565     -12.111609      0             -11.982231     -339002.95    
       930   333.63565     -12.111924      0             -11.982547     -339151.52    
       940   333.63565     -12.112241      0             -11.982864     -339304.37    
       950   333.63565     -12.112559      0             -11.983181     -339523.72    
       960   333.63565     -12.112886      0             -11.983509     -339466.08    
       970   333.63565     -12.113266      0             -11.983888     -339618.37    
       980   333.63565     -12.113654      0             -11.984276     -339859.96    
       990   333.63565     -12.114036      0             -11.984658     -340105.25    
      1000   333.63565     -12.114413      0             -11.985035     -340345.5     
      1010   333.63565     -12.114791      0             -11.985413     -340581.22    
      1020   333.63565     -12.115169      0             -11.985792     -340814.53    
      1030   333.63565     -12.115553      0             -11.986175     -341038.55    
      1040   333.63565     -12.11594       0             -11.986563     -341264.35    
      1050   333.63565     -12.116335      0             -11.986957     -341494.69    
      1060   333.63565     -12.147529      0             -12.018152     -346243.59    
      1070   333.63565     -12.148177      0             -12.0188       -346614.52    
      1080   333.63565     -12.148828      0             -12.019451     -346913.08    
      1090   333.63565     -12.149408      0             -12.02003      -347144.6     
      1093   333.63565     -12.14941       0             -12.020032     -347144.85    
Loop time of 16.7209 on 1 procs for 1083 steps with 4 atoms

99.7% CPU use with 1 MPI tasks x 1 OpenMP threads

Minimization stats:
  Stopping criterion = linesearch alpha is zero
  Energy initial, next-to-last, final = 
      -11.974799156189  -12.1494096317217  -12.1494096317217
  Force two-norm initial, final = 0.29950932 0.069723574
  Force max component initial, final = 0.15580022 0.035471308
  Final line search alpha, max atom move = 1.720683e-06 6.1034877e-08
  Iterations, force evaluations = 1083 1116

MPI task timing breakdown:
Section |  min time  |  avg time  |  max time  |%varavg| %total
---------------------------------------------------------------
Pair    | 16.7       | 16.7       | 16.7       |   0.0 | 99.87
Neigh   | 0          | 0          | 0          |   0.0 |  0.00
Comm    | 0.014481   | 0.014481   | 0.014481   |   0.0 |  0.09
Output  | 0.0011053  | 0.0011053  | 0.0011053  |   0.0 |  0.01
Modify  | 0          | 0          | 0          |   0.0 |  0.00
Other   |            | 0.0054     |            |       |  0.03

Nlocal:              4 ave           4 max           4 min
Histogram: 1 0 0 0 0 0 0 0 0 0
Nghost:           3320 ave        3320 max        3320 min
Histogram: 1 0 0 0 0 0 0 0 0 0
Neighs:             52 ave          52 max          52 min
Histogram: 1 0 0 0 0 0 0 0 0 0
FullNghs:         4652 ave        4652 max        4652 min
Histogram: 1 0 0 0 0 0 0 0 0 0

Total # of neighbors = 4652
Ave neighs/atom = 1163
Neighbor list builds = 0
Dangerous builds = 0
write_data ./StructureDump/sample.54.dat 
System init for write_data ...
variable etot equal etotal
variable ptot equal press
variable pairp equal epair
variable numat equal atoms
run 0
WARNING: No fixes with time integration, atoms won't move (src/verlet.cpp:60)
Per MPI rank memory allocation (min/avg/max) = 3.954 | 3.954 | 3.954 Mbytes
   Step          Temp          E_pair         E_mol          TotEng         Press     
      1093   333.63565     -12.14941       0             -12.020032     -346828.08    
Loop time of 1.9168e-05 on 1 procs for 0 steps with 4 atoms

114.8% CPU use with 1 MPI tasks x 1 OpenMP threads

MPI task timing breakdown:
Section |  min time  |  avg time  |  max time  |%varavg| %total
---------------------------------------------------------------
Pair    | 0          | 0          | 0          |   0.0 |  0.00
Neigh   | 0          | 0          | 0          |   0.0 |  0.00
Comm    | 0          | 0          | 0          |   0.0 |  0.00
Output  | 0          | 0          | 0          |   0.0 |  0.00
Modify  | 0          | 0          | 0          |   0.0 |  0.00
Other   |            | 1.917e-05  |            |       |100.00

Nlocal:              4 ave           4 max           4 min
Histogram: 1 0 0 0 0 0 0 0 0 0
Nghost:           3320 ave        3320 max        3320 min
Histogram: 1 0 0 0 0 0 0 0 0 0
Neighs:             50 ave          50 max          50 min
Histogram: 1 0 0 0 0 0 0 0 0 0
FullNghs:         4568 ave        4568 max        4568 min
Histogram: 1 0 0 0 0 0 0 0 0 0

Total # of neighbors = 4568
Ave neighs/atom = 1142
Neighbor list builds = 0
Dangerous builds = 0
print "${etot} ${pairp} ${ptot} ${numat} " append Summary.dat screen no
Total wall time: 0:00:17
