mass 1 51.996100
mass 2 55.845000
pair_style hybrid/overlay soft 2.224 mliap model mliappy LATER descriptor ace coupling_coefficients.yace
Loading python model deferred.
pair_coeff * * soft 2.000000
pair_coeff * * mliap   Cr Fe

thermo 10
velocity all create 1. 4928459 dist gaussian
Loading python model complete.
velocity all create 300.0 4928459 loop geom
fix  a1  all nve
run 10 
Neighbor list info ...
  update: every = 1 steps, delay = 0 steps, check = yes
  max neighbors/atom: 2000, page size: 100000
  master list distance cutoff = 14.92
  ghost atom cutoff = 14.92
  binsize = 7.4600001, bins = 1 1 2
  2 neighbor lists, perpetual/occasional/extra = 2 0 0
  (1) pair soft, perpetual, half/full trim from (2)
      attributes: half, newton on, cut 4.224
      pair build: halffull/trim/newton
      stencil: none
      bin: none
  (2) pair mliap, perpetual
      attributes: full, newton on
      pair build: full/bin/atomonly
      stencil: full/bin/3d
      bin: standard
Per MPI rank memory allocation (min/avg/max) = 4.111 | 4.111 | 4.111 Mbytes
   Step          Temp          E_pair         E_mol          TotEng         Press     
         0   300           -9.7824907      0             -9.5886005     -134571.32    
        10   308.22748     -9.7878084      0             -9.5886008     -135188.21    
Loop time of 0.202305 on 1 procs for 10 steps with 6 atoms

Performance: 4.271 ns/day, 5.620 hours/ns, 49.430 timesteps/s, 296.582 atom-step/s
112.1% CPU use with 1 MPI tasks x 1 OpenMP threads

MPI task timing breakdown:
Section |  min time  |  avg time  |  max time  |%varavg| %total
---------------------------------------------------------------
Pair    | 0.20207    | 0.20207    | 0.20207    |   0.0 | 99.89
Neigh   | 0          | 0          | 0          |   0.0 |  0.00
Comm    | 0.00014048 | 0.00014048 | 0.00014048 |   0.0 |  0.07
Output  | 1.0335e-05 | 1.0335e-05 | 1.0335e-05 |   0.0 |  0.01
Modify  | 7.955e-06  | 7.955e-06  | 7.955e-06  |   0.0 |  0.00
Other   |            | 7.341e-05  |            |       |  0.04

Nlocal:              6 ave           6 max           6 min
Histogram: 1 0 0 0 0 0 0 0 0 0
Nghost:           3583 ave        3583 max        3583 min
Histogram: 1 0 0 0 0 0 0 0 0 0
Neighs:             78 ave          78 max          78 min
Histogram: 1 0 0 0 0 0 0 0 0 0
FullNghs:         6972 ave        6972 max        6972 min
Histogram: 1 0 0 0 0 0 0 0 0 0

Total # of neighbors = 6972
Ave neighs/atom = 1162
Neighbor list builds = 0
Dangerous builds = 0
unfix  a1
min_style  cg
min_modify  dmax 0.000500 line backtrack
minimize 1e-12 1e-12 10000 100000
Per MPI rank memory allocation (min/avg/max) = 5.236 | 5.236 | 5.236 Mbytes
   Step          Temp          E_pair         E_mol          TotEng         Press     
        10   308.22748     -9.81003        0             -9.6108223     -136988.78    
        20   308.22748     -9.8149757      0             -9.6157681     -137270.5     
        30   308.22748     -9.819952       0             -9.6207444     -137555.24    
        40   308.22748     -9.8249588      0             -9.6257512     -137844.55    
        50   308.22748     -9.8299942      0             -9.6307866     -138127.87    
        60   308.22748     -9.835062       0             -9.6358544     -138428.49    
        70   308.22748     -9.8401613      0             -9.6409537     -138730.35    
        80   308.22748     -9.8452854      0             -9.6460778     -139009.04    
        90   308.22748     -9.8504457      0             -9.6512381     -139312.24    
       100   308.22748     -9.8556366      0             -9.656429      -139621.53    
       110   308.22748     -9.860858       0             -9.6616503     -139930       
       120   308.22748     -9.8661547      0             -9.666947      -142556.3     
       130   308.22748     -9.8715219      0             -9.6723143     -142891.91    
       140   308.22748     -9.8769875      0             -9.6777798     -145535.76    
       150   308.22748     -9.8825026      0             -9.6832949     -145875.02    
       160   308.22748     -9.888051       0             -9.6888434     -146219.69    
       170   308.22748     -9.893631       0             -9.6944233     -146566.61    
       180   308.22748     -9.8992443      0             -9.7000367     -146916.93    
       190   308.22748     -9.904892       0             -9.7056843     -147269.47    
       200   308.22748     -9.9105721      0             -9.7113644     -147621.24    
       210   308.22748     -9.9162865      0             -9.7170788     -147973.09    
       220   308.22748     -9.9220333      0             -9.7228257     -148328.42    
       230   308.22748     -9.9278145      0             -9.7286068     -148685.12    
       240   308.22748     -9.93363        0             -9.7344223     -149041.67    
       250   308.22748     -9.9394798      0             -9.7402722     -149398.85    
       260   308.22748     -9.945363       0             -9.7461554     -149757.94    
       270   308.22748     -9.9512815      0             -9.7520739     -150119.52    
       280   308.22748     -9.9572334      0             -9.7580258     -150482.11    
       290   308.22748     -9.9632215      0             -9.7640139     -150855.74    
       300   308.22748     -9.969244       0             -9.7700364     -151233.92    
       310   308.22748     -9.9752989      0             -9.7760912     -151619.37    
       320   308.22748     -9.98139        0             -9.7821824     -152006.4     
       330   308.22748     -9.9875145      0             -9.7883068     -152399.94    
       340   308.22748     -9.9936733      0             -9.7944657     -152796       
       350   308.22748     -9.9998655      0             -9.8006579     -153193.42    
       360   308.22748     -10.006092      0             -9.8068844     -153592.35    
       370   308.22748     -10.012352      0             -9.8131443     -153992.97    
       380   308.22748     -10.018648      0             -9.8194405     -154396.27    
       390   308.22748     -10.024979      0             -9.825771      -154800.03    
       400   308.22748     -10.031344      0             -9.8321368     -155204.35    
       410   308.22748     -10.037746      0             -9.8385388     -155609.67    
       420   308.22748     -10.044184      0             -9.8449761     -156018.94    
       430   308.22748     -10.050657      0             -9.8514496     -156430.09    
       440   308.22748     -10.057165      0             -9.8579575     -156843.01    
       450   308.22748     -10.063709      0             -9.8645016     -157257.64    
       460   308.22748     -10.07029       0             -9.871082      -157673.91    
       470   308.22748     -10.076906      0             -9.8776986     -158091.76    
       480   308.22748     -10.08356       0             -9.8843523     -158511.2     
       490   308.22748     -10.090249      0             -9.8910414     -158935.93    
       500   308.22748     -10.096977      0             -9.8977696     -159364.62    
       510   308.22748     -10.103799      0             -9.9045912     -162288.73    
       520   308.22748     -10.110703      0             -9.9114958     -162723.19    
       530   308.22748     -10.117646      0             -9.9184386     -163159.09    
       540   308.22748     -10.124626      0             -9.9254185     -163596.19    
       550   308.22748     -10.131646      0             -9.9324385     -164036.12    
       560   308.22748     -10.138704      0             -9.9394967     -164477.36    
       570   308.22748     -10.145807      0             -9.9465996     -164945.6     
       580   308.22748     -10.152943      0             -9.953735      -165391.09    
       590   308.22748     -10.160119      0             -9.9609114     -165838.92    
       600   308.22748     -10.167335      0             -9.9681269     -166285.01    
       610   308.22748     -10.19022       0             -9.9910122     -168100.07    
       620   308.22748     -10.19754       0             -9.9983326     -168554.4     
       630   308.22748     -10.205065      0             -10.005857     -169164.94    
       640   308.22748     -10.212473      0             -10.013265     -169624.49    
       648   308.22748     -10.214478      0             -10.01527      -169748.66    
Loop time of 14.0409 on 1 procs for 638 steps with 6 atoms

99.8% CPU use with 1 MPI tasks x 1 OpenMP threads

Minimization stats:
  Stopping criterion = linesearch alpha is zero
  Energy initial, next-to-last, final = 
     -9.81002998352051  -10.2144775390625  -10.2144775390625
  Force two-norm initial, final = 0.63817042 0.95392695
  Force max component initial, final = 0.41299946 0.61158095
  Final line search alpha, max atom move = 1.2474866e-08 7.6293907e-09
  Iterations, force evaluations = 638 679

MPI task timing breakdown:
Section |  min time  |  avg time  |  max time  |%varavg| %total
---------------------------------------------------------------
Pair    | 14.028     | 14.028     | 14.028     |   0.0 | 99.90
Neigh   | 0          | 0          | 0          |   0.0 |  0.00
Comm    | 0.0093233  | 0.0093233  | 0.0093233  |   0.0 |  0.07
Output  | 0.00062326 | 0.00062326 | 0.00062326 |   0.0 |  0.00
Modify  | 0          | 0          | 0          |   0.0 |  0.00
Other   |            | 0.003405   |            |       |  0.02

Nlocal:              6 ave           6 max           6 min
Histogram: 1 0 0 0 0 0 0 0 0 0
Nghost:           3583 ave        3583 max        3583 min
Histogram: 1 0 0 0 0 0 0 0 0 0
Neighs:             78 ave          78 max          78 min
Histogram: 1 0 0 0 0 0 0 0 0 0
FullNghs:         6914 ave        6914 max        6914 min
Histogram: 1 0 0 0 0 0 0 0 0 0

Total # of neighbors = 6914
Ave neighs/atom = 1152.3333
Neighbor list builds = 0
Dangerous builds = 0
write_data ./StructureDump/sample.120.dat 
System init for write_data ...
variable etot equal etotal
variable ptot equal press
variable pairp equal epair
variable numat equal atoms
run 0
WARNING: No fixes with time integration, atoms won't move (src/verlet.cpp:60)
Per MPI rank memory allocation (min/avg/max) = 4.112 | 4.112 | 4.112 Mbytes
   Step          Temp          E_pair         E_mol          TotEng         Press     
       648   308.22748     -10.214478      0             -10.01527      -218135.64    
Loop time of 1.8975e-05 on 1 procs for 0 steps with 6 atoms

100.1% CPU use with 1 MPI tasks x 1 OpenMP threads

MPI task timing breakdown:
Section |  min time  |  avg time  |  max time  |%varavg| %total
---------------------------------------------------------------
Pair    | 0          | 0          | 0          |   0.0 |  0.00
Neigh   | 0          | 0          | 0          |   0.0 |  0.00
Comm    | 0          | 0          | 0          |   0.0 |  0.00
Output  | 0          | 0          | 0          |   0.0 |  0.00
Modify  | 0          | 0          | 0          |   0.0 |  0.00
Other   |            | 1.897e-05  |            |       |100.00

Nlocal:              6 ave           6 max           6 min
Histogram: 1 0 0 0 0 0 0 0 0 0
Nghost:           3583 ave        3583 max        3583 min
Histogram: 1 0 0 0 0 0 0 0 0 0
Neighs:             70 ave          70 max          70 min
Histogram: 1 0 0 0 0 0 0 0 0 0
FullNghs:         6892 ave        6892 max        6892 min
Histogram: 1 0 0 0 0 0 0 0 0 0

Total # of neighbors = 6892
Ave neighs/atom = 1148.6667
Neighbor list builds = 0
Dangerous builds = 0
print "${etot} ${pairp} ${ptot} ${numat} " append Summary.dat screen no
Total wall time: 0:00:14
