mass 1 51.996100
mass 2 55.845000
pair_style hybrid/overlay soft 2.224 mliap model mliappy LATER descriptor ace coupling_coefficients.yace
Loading python model deferred.
pair_coeff * * soft 2.000000
pair_coeff * * mliap   Cr Fe

thermo 10
velocity all create 1. 4928459 dist gaussian
Loading python model complete.
velocity all create 300.0 4928459 loop geom
fix  a1  all nve
run 100 
Neighbor list info ...
  update: every = 1 steps, delay = 0 steps, check = yes
  max neighbors/atom: 2000, page size: 100000
  master list distance cutoff = 14.92
  ghost atom cutoff = 14.92
  binsize = 7.4600001, bins = 1 1 2
  2 neighbor lists, perpetual/occasional/extra = 2 0 0
  (1) pair soft, perpetual, half/full trim from (2)
      attributes: half, newton on, cut 4.224
      pair build: halffull/trim/newton
      stencil: none
      bin: none
  (2) pair mliap, perpetual
      attributes: full, newton on
      pair build: full/bin/atomonly
      stencil: full/bin/3d
      bin: standard
Per MPI rank memory allocation (min/avg/max) = 4.097 | 4.097 | 4.097 Mbytes
   Step          Temp          E_pair         E_mol          TotEng         Press     
         0   300           -12.698849      0             -12.504959     -420735.06    
        10   446.61153     -12.7936        0             -12.504955     -425385.7     
        20   660.68169     -12.931936      0             -12.504937     -433187.38    
        30   959.79023     -13.09811       0             -12.477797     -444302.43    
        40   1281.6249     -13.293701      0             -12.465386     -442716.84    
        50   1455.9028     -13.187686      0             -12.246735     -428704.89    
        60   1503.9235     -13.107109      0             -12.135122     -429542.06    
        70   1527.7914     -13.151636      0             -12.164224     -448194.55    
        80   1673.137      -13.238863      0             -12.157513     -461287.89    
        90   1948.4096     -13.416772      0             -12.157513     -470039.31    
       100   2155.2952     -13.525995      0             -12.133026     -472526.17    
Loop time of 2.07746 on 1 procs for 100 steps with 6 atoms

Performance: 4.159 ns/day, 5.771 hours/ns, 48.136 timesteps/s, 288.815 atom-step/s
101.0% CPU use with 1 MPI tasks x 1 OpenMP threads

MPI task timing breakdown:
Section |  min time  |  avg time  |  max time  |%varavg| %total
---------------------------------------------------------------
Pair    | 2.0755     | 2.0755     | 2.0755     |   0.0 | 99.91
Neigh   | 0          | 0          | 0          |   0.0 |  0.00
Comm    | 0.0013026  | 0.0013026  | 0.0013026  |   0.0 |  0.06
Output  | 0.00010993 | 0.00010993 | 0.00010993 |   0.0 |  0.01
Modify  | 7.1975e-05 | 7.1975e-05 | 7.1975e-05 |   0.0 |  0.00
Other   |            | 0.0004397  |            |       |  0.02

Nlocal:              6 ave           6 max           6 min
Histogram: 1 0 0 0 0 0 0 0 0 0
Nghost:           3429 ave        3429 max        3429 min
Histogram: 1 0 0 0 0 0 0 0 0 0
Neighs:             54 ave          54 max          54 min
Histogram: 1 0 0 0 0 0 0 0 0 0
FullNghs:         7224 ave        7224 max        7224 min
Histogram: 1 0 0 0 0 0 0 0 0 0

Total # of neighbors = 7224
Ave neighs/atom = 1204
Neighbor list builds = 0
Dangerous builds = 0
unfix  a1
min_style  cg
min_modify  dmax 0.005000 line backtrack
minimize 1e-12 1e-12 10000 100000
Per MPI rank memory allocation (min/avg/max) = 5.223 | 5.223 | 5.223 Mbytes
   Step          Temp          E_pair         E_mol          TotEng         Press     
       100   2155.2952     -14.344883      0             -12.951914     -544779.5     
       110   2155.2952     -14.481272      0             -13.088303     -542617.68    
       120   2155.2952     -14.598833      0             -13.205864     -542317.67    
       130   2155.2952     -14.70217       0             -13.309201     -541685.64    
       140   2155.2952     -14.7703        0             -13.377331     -539402.82    
       150   2155.2952     -14.824317      0             -13.431348     -539525.01    
       160   2155.2952     -14.877746      0             -13.484777     -540893.94    
       170   2155.2952     -14.933715      0             -13.540746     -543369.05    
       180   2155.2952     -14.994168      0             -13.601199     -548805.67    
       190   2155.2952     -15.057402      0             -13.664433     -547936.39    
       200   2155.2952     -15.127309      0             -13.73434      -550886.57    
       210   2155.2952     -15.212284      0             -13.819316     -558638.81    
       220   2155.2952     -15.3087        0             -13.915731     -568150.78    
       230   2155.2952     -15.41676       0             -14.023791     -579238.58    
       240   2155.2952     -15.540347      0             -14.147378     -589667.75    
       250   2155.2952     -15.665828      0             -14.272859     -596416.83    
       260   2155.2952     -15.784839      0             -14.39187      -604024       
       270   2155.2952     -15.918536      0             -14.525567     -612374.46    
       280   2155.2952     -16.035792      0             -14.642824     -616100.26    
       290   2155.2952     -16.132719      0             -14.73975      -621736.57    
       300   2155.2952     -16.281031      0             -14.888062     -640056.26    
       310   2155.2952     -16.389613      0             -14.996645     -656226.3     
       320   2155.2952     -16.480385      0             -15.087416     -673020.04    
       330   2155.2952     -16.599384      0             -15.206415     -695850.38    
       340   2155.2952     -16.739676      0             -15.346707     -721376.35    
       350   2155.2952     -16.915158      0             -15.522189     -749415.55    
       360   2155.2952     -17.12694       0             -15.733972     -776582.05    
       370   2155.2952     -17.385169      0             -15.9922       -807429.11    
       380   2155.2952     -17.675978      0             -16.283009     -836259.01    
       390   2155.2952     -17.992076      0             -16.599107     -873099.32    
       400   2155.2952     -18.33107       0             -16.938101     -913227.24    
       410   2155.2952     -18.730884      0             -17.337916     -958998.24    
       420   2155.2952     -19.058835      0             -17.665866     -998735.96    
       430   2155.2952     -19.35931       0             -17.966341     -1036566.3    
       439   2155.2952     -19.434361      0             -18.041392     -1046382      
Loop time of 9.04377 on 1 procs for 339 steps with 6 atoms

99.8% CPU use with 1 MPI tasks x 1 OpenMP threads

Minimization stats:
  Stopping criterion = linesearch alpha is zero
  Energy initial, next-to-last, final = 
     -14.3448831984424  -19.4343606623804  -19.4343606623804
  Force two-norm initial, final = 1.7610079 3.0912813
  Force max component initial, final = 1.0340319 1.7011728
  Final line search alpha, max atom move = 7.0074769e-10 1.1920929e-09
  Iterations, force evaluations = 339 403

MPI task timing breakdown:
Section |  min time  |  avg time  |  max time  |%varavg| %total
---------------------------------------------------------------
Pair    | 9.0359     | 9.0359     | 9.0359     |   0.0 | 99.91
Neigh   | 0.00012572 | 0.00012572 | 0.00012572 |   0.0 |  0.00
Comm    | 0.0053566  | 0.0053566  | 0.0053566  |   0.0 |  0.06
Output  | 0.00032369 | 0.00032369 | 0.00032369 |   0.0 |  0.00
Modify  | 0          | 0          | 0          |   0.0 |  0.00
Other   |            | 0.00209    |            |       |  0.02

Nlocal:              6 ave           6 max           6 min
Histogram: 1 0 0 0 0 0 0 0 0 0
Nghost:           3489 ave        3489 max        3489 min
Histogram: 1 0 0 0 0 0 0 0 0 0
Neighs:             91 ave          91 max          91 min
Histogram: 1 0 0 0 0 0 0 0 0 0
FullNghs:         7026 ave        7026 max        7026 min
Histogram: 1 0 0 0 0 0 0 0 0 0

Total # of neighbors = 7026
Ave neighs/atom = 1171
Neighbor list builds = 1
Dangerous builds = 0
write_data ./StructureDump/sample.154.dat 
System init for write_data ...
variable etot equal etotal
variable ptot equal press
variable pairp equal epair
variable numat equal atoms
run 0
WARNING: No fixes with time integration, atoms won't move (src/verlet.cpp:60)
Per MPI rank memory allocation (min/avg/max) = 4.1 | 4.1 | 4.1 Mbytes
   Step          Temp          E_pair         E_mol          TotEng         Press     
       439   2155.2952     -19.434361      0             -18.041392     -1071142.1    
Loop time of 1.8785e-05 on 1 procs for 0 steps with 6 atoms

101.1% CPU use with 1 MPI tasks x 1 OpenMP threads

MPI task timing breakdown:
Section |  min time  |  avg time  |  max time  |%varavg| %total
---------------------------------------------------------------
Pair    | 0          | 0          | 0          |   0.0 |  0.00
Neigh   | 0          | 0          | 0          |   0.0 |  0.00
Comm    | 0          | 0          | 0          |   0.0 |  0.00
Output  | 0          | 0          | 0          |   0.0 |  0.00
Modify  | 0          | 0          | 0          |   0.0 |  0.00
Other   |            | 1.879e-05  |            |       |100.00

Nlocal:              6 ave           6 max           6 min
Histogram: 1 0 0 0 0 0 0 0 0 0
Nghost:           3619 ave        3619 max        3619 min
Histogram: 1 0 0 0 0 0 0 0 0 0
Neighs:             96 ave          96 max          96 min
Histogram: 1 0 0 0 0 0 0 0 0 0
FullNghs:         6954 ave        6954 max        6954 min
Histogram: 1 0 0 0 0 0 0 0 0 0

Total # of neighbors = 6954
Ave neighs/atom = 1159
Neighbor list builds = 0
Dangerous builds = 0
print "${etot} ${pairp} ${ptot} ${numat} " append Summary.dat screen no
Total wall time: 0:00:11
