mass 1 51.996100
mass 2 55.845000
pair_style hybrid/overlay soft 2.224 mliap model mliappy LATER descriptor ace coupling_coefficients.yace
Loading python model deferred.
pair_coeff * * soft 2.000000
pair_coeff * * mliap   Cr Fe

thermo 10
velocity all create 1. 4928459 dist gaussian
Loading python model complete.
velocity all create 300.0 4928459 loop geom
fix  a1  all nve
run 100 
Neighbor list info ...
  update: every = 1 steps, delay = 0 steps, check = yes
  max neighbors/atom: 2000, page size: 100000
  master list distance cutoff = 14.92
  ghost atom cutoff = 14.92
  binsize = 7.4600001, bins = 1 1 1
  2 neighbor lists, perpetual/occasional/extra = 2 0 0
  (1) pair soft, perpetual, half/full trim from (2)
      attributes: half, newton on, cut 4.224
      pair build: halffull/trim/newton/tri
      stencil: none
      bin: none
  (2) pair mliap, perpetual
      attributes: full, newton on
      pair build: full/bin/atomonly
      stencil: full/bin/3d
      bin: standard
Per MPI rank memory allocation (min/avg/max) = 4.062 | 4.062 | 4.062 Mbytes
   Step          Temp          E_pair         E_mol          TotEng         Press     
         0   300           -10.526587      0             -10.332697     -188298.44    
        10   314.96169     -10.536257      0             -10.332697     -188939.02    
        20   329.37281     -10.497754      0             -10.28488      -186033.02    
        30   345.04515     -10.488872      0             -10.265869     -185284.37    
        40   363.25129     -10.519176      0             -10.284407     -188244.95    
        50   373.5398      -10.573428      0             -10.332009     -186621.99    
        60   347.45981     -10.508492      0             -10.283928     -175768.18    
        70   309.67507     -10.379627      0             -10.179484     -158753.47    
        80   296.26119     -10.347646      0             -10.156172     -152946.98    
        90   339.87549     -10.371747      0             -10.152085     -151765.82    
       100   421.3949      -10.424461      0             -10.152113     -149742.23    
Loop time of 2.04356 on 1 procs for 100 steps with 6 atoms

Performance: 4.228 ns/day, 5.677 hours/ns, 48.934 timesteps/s, 293.606 atom-step/s
99.8% CPU use with 1 MPI tasks x 1 OpenMP threads

MPI task timing breakdown:
Section |  min time  |  avg time  |  max time  |%varavg| %total
---------------------------------------------------------------
Pair    | 2.0415     | 2.0415     | 2.0415     |   0.0 | 99.90
Neigh   | 0          | 0          | 0          |   0.0 |  0.00
Comm    | 0.0014173  | 0.0014173  | 0.0014173  |   0.0 |  0.07
Output  | 0.00010981 | 0.00010981 | 0.00010981 |   0.0 |  0.01
Modify  | 7.6606e-05 | 7.6606e-05 | 7.6606e-05 |   0.0 |  0.00
Other   |            | 0.00045    |            |       |  0.02

Nlocal:              6 ave           6 max           6 min
Histogram: 1 0 0 0 0 0 0 0 0 0
Nghost:           3738 ave        3738 max        3738 min
Histogram: 1 0 0 0 0 0 0 0 0 0
Neighs:             78 ave          78 max          78 min
Histogram: 1 0 0 0 0 0 0 0 0 0
FullNghs:         6876 ave        6876 max        6876 min
Histogram: 1 0 0 0 0 0 0 0 0 0

Total # of neighbors = 6876
Ave neighs/atom = 1146
Neighbor list builds = 0
Dangerous builds = 0
unfix  a1
min_style  cg
min_modify  dmax 0.000500 line backtrack
minimize 1e-12 1e-12 10000 100000
Per MPI rank memory allocation (min/avg/max) = 5.187 | 5.187 | 5.187 Mbytes
   Step          Temp          E_pair         E_mol          TotEng         Press     
       100   421.3949      -10.616605      0             -10.344257     -167120.05    
       110   421.3949      -10.632161      0             -10.359814     -169381.77    
       120   421.3949      -10.646398      0             -10.37405      -171611.39    
       130   421.3949      -10.659389      0             -10.387042     -173796.93    
       140   421.3949      -10.671221      0             -10.398873     -175936.35    
       150   421.3949      -10.681971      0             -10.409623     -178020.07    
       160   421.3949      -10.691729      0             -10.419381     -180064.95    
       170   421.3949      -10.700586      0             -10.428239     -182055.37    
       180   421.3949      -10.708633      0             -10.436285     -183971.02    
       190   421.3949      -10.715944      0             -10.443596     -185719.91    
       200   421.3949      -10.722537      0             -10.450189     -187316.15    
       210   421.3949      -10.728485      0             -10.456137     -188804.1     
       220   421.3949      -10.733869      0             -10.461522     -190185.59    
       230   421.3949      -10.738771      0             -10.466423     -191453.35    
       240   421.3949      -10.743281      0             -10.470933     -192468.59    
       250   421.3949      -10.747587      0             -10.475239     -193249.8     
       260   421.3949      -10.75177       0             -10.479422     -193890.75    
       270   421.3949      -10.755813      0             -10.483465     -194339.29    
       280   421.3949      -10.759744      0             -10.487396     -194752.8     
       290   421.3949      -10.763488      0             -10.49114      -195129.1     
       300   421.3949      -10.76702       0             -10.494672     -195480.31    
       310   421.3949      -10.770388      0             -10.498041     -195791.24    
       320   421.3949      -10.773629      0             -10.501282     -196074.15    
       330   421.3949      -10.776763      0             -10.504415     -196335.22    
       340   421.3949      -10.779811      0             -10.507463     -196576.51    
       350   421.3949      -10.782789      0             -10.510441     -196800.8     
       360   421.3949      -10.785708      0             -10.51336      -196993.07    
       370   421.3949      -10.788582      0             -10.516235     -197133.39    
       380   421.3949      -10.791421      0             -10.519073     -197283.52    
       390   421.3949      -10.794229      0             -10.521881     -197426.08    
       400   421.3949      -10.797007      0             -10.524659     -197568.06    
       410   421.3949      -10.799762      0             -10.527414     -197707.65    
       420   421.3949      -10.802494      0             -10.530146     -197844.43    
       430   421.3949      -10.805206      0             -10.532858     -197978.39    
       440   421.3949      -10.807899      0             -10.535551     -198109.12    
       450   421.3949      -10.810578      0             -10.53823      -198238.54    
       460   421.3949      -10.813242      0             -10.540894     -198356.61    
       470   421.3949      -10.815893      0             -10.543545     -198480.2     
       480   421.3949      -10.818531      0             -10.546183     -198608.86    
       490   421.3949      -10.821158      0             -10.54881      -198741.93    
       500   421.3949      -10.823776      0             -10.551428     -198873.67    
       510   421.3949      -10.826388      0             -10.55404      -198972.62    
       520   421.3949      -10.828849      0             -10.556501     -198758.24    
       530   421.3949      -10.831123      0             -10.558776     -198638.81    
       540   421.3949      -10.83328       0             -10.560932     -198582.59    
       550   421.3949      -10.835361      0             -10.563013     -198569.76    
       560   421.3949      -10.837391      0             -10.565043     -198603.17    
       570   421.3949      -10.839387      0             -10.56704      -198647.86    
       580   421.3949      -10.841356      0             -10.569009     -198706.11    
       590   421.3949      -10.843305      0             -10.570957     -198778.63    
       600   421.3949      -10.845236      0             -10.572888     -198864.21    
       610   421.3949      -10.847153      0             -10.574805     -198945.33    
       620   421.3949      -10.849056      0             -10.576708     -199028.13    
       630   421.3949      -10.850948      0             -10.5786       -199118.95    
       640   421.3949      -10.852828      0             -10.580481     -199212.7     
       650   421.3949      -10.8547        0             -10.582352     -199306.83    
       660   421.3949      -10.856562      0             -10.584214     -199401.16    
       670   421.3949      -10.858407      0             -10.586059     -199328.82    
       680   421.3949      -10.860093      0             -10.587745     -199151.33    
       690   421.3949      -10.861624      0             -10.589276     -198689.01    
       700   421.3949      -10.863067      0             -10.59072      -198218.69    
       710   421.3949      -10.864497      0             -10.59215      -197857.26    
       720   421.3949      -10.865941      0             -10.593593     -197454.44    
       730   421.3949      -10.867329      0             -10.594982     -196983.44    
       740   421.3949      -10.868722      0             -10.596374     -196642.97    
       750   421.3949      -10.870153      0             -10.597806     -195966.11    
       760   421.3949      -10.871377      0             -10.599029     -195127       
       770   421.3949      -10.872456      0             -10.600108     -194822.88    
       780   421.3949      -10.873494      0             -10.601147     -194780.86    
       790   421.3949      -10.874481      0             -10.602133     -194554.59    
       800   421.3949      -10.875345      0             -10.602997     -194343.36    
       810   421.3949      -10.87616       0             -10.603812     -194192.04    
       820   421.3949      -10.876961      0             -10.604613     -194083.47    
       830   421.3949      -10.87776       0             -10.605412     -194010       
       840   421.3949      -10.878558      0             -10.60621      -193963.95    
       850   421.3949      -10.87936       0             -10.607012     -193939.55    
       860   421.3949      -10.880165      0             -10.607817     -193933.95    
       870   421.3949      -10.880974      0             -10.608626     -193934.98    
       880   421.3949      -10.881785      0             -10.609438     -193957.23    
       890   421.3949      -10.882597      0             -10.610249     -193986.86    
       900   421.3949      -10.883407      0             -10.61106      -194021.54    
       910   421.3949      -10.884217      0             -10.611869     -194059.91    
       920   421.3949      -10.885025      0             -10.612677     -194100.88    
       930   421.3949      -10.88583       0             -10.613482     -194143.64    
       940   421.3949      -10.886632      0             -10.614284     -194187.54    
       950   421.3949      -10.887431      0             -10.615084     -194232.46    
       960   421.3949      -10.888228      0             -10.61588      -194288.37    
       970   421.3949      -10.889022      0             -10.616674     -194343.74    
       980   421.3949      -10.889815      0             -10.617467     -194401.84    
       990   421.3949      -10.890604      0             -10.618256     -194456.23    
      1000   421.3949      -10.891361      0             -10.619013     -194326.69    
      1010   421.3949      -10.892019      0             -10.619671     -194013.02    
      1020   421.3949      -10.89257       0             -10.620222     -193708.61    
      1030   421.3949      -10.893068      0             -10.620721     -193427.1     
      1040   421.3949      -10.893535      0             -10.621187     -193149.45    
      1050   421.3949      -10.893976      0             -10.621628     -192866.88    
      1060   421.3949      -10.894403      0             -10.622055     -192598.99    
      1070   421.3949      -10.894817      0             -10.622469     -192347.25    
      1080   421.3949      -10.895206      0             -10.622858     -192116.61    
      1090   421.3949      -10.895566      0             -10.623218     -191909.7     
      1100   421.3949      -10.895903      0             -10.623555     -191722.98    
      1110   421.3949      -10.896223      0             -10.623875     -191553.83    
      1120   421.3949      -10.896531      0             -10.624183     -191400.64    
      1130   421.3949      -10.896826      0             -10.624478     -191261.17    
      1140   421.3949      -10.897112      0             -10.624764     -191133.82    
      1150   421.3949      -10.89739       0             -10.625042     -191017.25    
      1160   421.3949      -10.897663      0             -10.625315     -190910.24    
      1170   421.3949      -10.89793       0             -10.625582     -190811.73    
      1180   421.3949      -10.898193      0             -10.625845     -190720.77    
      1190   421.3949      -10.898451      0             -10.626104     -190636.47    
      1200   421.3949      -10.898706      0             -10.626358     -190558.08    
      1210   421.3949      -10.898958      0             -10.62661      -190486.35    
      1220   421.3949      -10.899206      0             -10.626858     -190418.42    
      1230   421.3949      -10.899452      0             -10.627104     -190352.24    
      1240   421.3949      -10.899696      0             -10.627348     -190289.21    
      1250   421.3949      -10.899938      0             -10.62759      -190230.78    
      1260   421.3949      -10.900177      0             -10.627829     -190170.49    
      1270   421.3949      -10.900371      0             -10.628023     -189887.72    
      1280   421.3949      -10.900536      0             -10.628188     -189727.53    
      1290   421.3949      -10.900699      0             -10.628351     -189607.89    
      1300   421.3949      -10.900862      0             -10.628514     -189508.63    
      1310   421.3949      -10.901024      0             -10.628676     -189405.35    
      1320   421.3949      -10.901181      0             -10.628834     -189320.93    
      1330   421.3949      -10.901333      0             -10.628986     -189242.52    
      1340   421.3949      -10.901481      0             -10.629133     -189170.16    
      1350   421.3949      -10.901626      0             -10.629278     -189102.88    
      1360   421.3949      -10.901763      0             -10.629415     -189039.25    
      1370   421.3949      -10.901897      0             -10.629549     -188977.93    
      1380   421.3949      -10.902024      0             -10.629676     -188902.98    
      1390   421.3949      -10.902099      0             -10.629751     -188696.96    
      1400   421.3949      -10.902139      0             -10.629791     -188531.03    
      1410   421.3949      -10.902153      0             -10.629805     -188367.69    
      1412   421.3949      -10.902153      0             -10.629805     -188376.81    
Loop time of 28.1947 on 1 procs for 1312 steps with 6 atoms

99.8% CPU use with 1 MPI tasks x 1 OpenMP threads

Minimization stats:
  Stopping criterion = linesearch alpha is zero
  Energy initial, next-to-last, final = 
      -10.616604950652  -10.9021531961312  -10.9021531961312
  Force two-norm initial, final = 1.5295183 0.0015685201
  Force max component initial, final = 0.72073734 0.00077671136
  Final line search alpha, max atom move = 0.005029217 3.90625e-06
  Iterations, force evaluations = 1312 1327

MPI task timing breakdown:
Section |  min time  |  avg time  |  max time  |%varavg| %total
---------------------------------------------------------------
Pair    | 28.167     | 28.167     | 28.167     |   0.0 | 99.90
Neigh   | 0          | 0          | 0          |   0.0 |  0.00
Comm    | 0.019096   | 0.019096   | 0.019096   |   0.0 |  0.07
Output  | 0.0013993  | 0.0013993  | 0.0013993  |   0.0 |  0.00
Modify  | 0          | 0          | 0          |   0.0 |  0.00
Other   |            | 0.006848   |            |       |  0.02

Nlocal:              6 ave           6 max           6 min
Histogram: 1 0 0 0 0 0 0 0 0 0
Nghost:           3738 ave        3738 max        3738 min
Histogram: 1 0 0 0 0 0 0 0 0 0
Neighs:             67 ave          67 max          67 min
Histogram: 1 0 0 0 0 0 0 0 0 0
FullNghs:         6754 ave        6754 max        6754 min
Histogram: 1 0 0 0 0 0 0 0 0 0

Total # of neighbors = 6754
Ave neighs/atom = 1125.6667
Neighbor list builds = 0
Dangerous builds = 0
write_data ./StructureDump/sample.55.dat 
System init for write_data ...
variable etot equal etotal
variable ptot equal press
variable pairp equal epair
variable numat equal atoms
run 0
WARNING: No fixes with time integration, atoms won't move (src/verlet.cpp:60)
Per MPI rank memory allocation (min/avg/max) = 4.062 | 4.062 | 4.062 Mbytes
   Step          Temp          E_pair         E_mol          TotEng         Press     
      1412   421.3949      -10.902153      0             -10.629805     -188376.81    
Loop time of 1.9665e-05 on 1 procs for 0 steps with 6 atoms

91.5% CPU use with 1 MPI tasks x 1 OpenMP threads

MPI task timing breakdown:
Section |  min time  |  avg time  |  max time  |%varavg| %total
---------------------------------------------------------------
Pair    | 0          | 0          | 0          |   0.0 |  0.00
Neigh   | 0          | 0          | 0          |   0.0 |  0.00
Comm    | 0          | 0          | 0          |   0.0 |  0.00
Output  | 0          | 0          | 0          |   0.0 |  0.00
Modify  | 0          | 0          | 0          |   0.0 |  0.00
Other   |            | 1.966e-05  |            |       |100.00

Nlocal:              6 ave           6 max           6 min
Histogram: 1 0 0 0 0 0 0 0 0 0
Nghost:           3738 ave        3738 max        3738 min
Histogram: 1 0 0 0 0 0 0 0 0 0
Neighs:             71 ave          71 max          71 min
Histogram: 1 0 0 0 0 0 0 0 0 0
FullNghs:         6748 ave        6748 max        6748 min
Histogram: 1 0 0 0 0 0 0 0 0 0

Total # of neighbors = 6748
Ave neighs/atom = 1124.6667
Neighbor list builds = 0
Dangerous builds = 0
print "${etot} ${pairp} ${ptot} ${numat} " append Summary.dat screen no
Total wall time: 0:00:30
