ats_79.data (written by ASE) 

5 	 atoms 
2  atom types
0.0      2.5173001410241094  xlo xhi
0.0       2.180045871077029  ylo yhi
0.0      10.276834791575336  zlo zhi
     1.2586500705120545     -1.2586500705120542     0.72668195702567751  xy xz yz


Atoms 

     1   1                       0                       0                       0
     2   2      2.5173001410241089      1.4533639140513526      2.0553669583150675
     3   1      1.2586500705120542     0.72668195702567662      4.1107339166301351
     4   2      3.7759502115361636      2.1800458710770294      6.1661008749452018
     5   2      2.5173001410241089      1.4533639140513535      8.2214678332602702
