ats_179.data (written by ASE) 

4 	 atoms 
2  atom types
0.0      4.0729350596345135  xlo xhi
0.0      3.5272652296077767  ylo yhi
0.0      3.3255375505322458  zlo zhi
     2.0364675298172568      2.0364675298172568      1.1757550765359266  xy xz yz


Atoms 

     1   1                       0                       0                       0
     2   1      2.0364675298172563      1.1757550765359257     0.83138438763306166
     3   1      4.0729350596345135      2.3515101530718518      1.6627687752661233
     4   2      6.1094025894517694      3.5272652296077789      2.4941531628991851
