ats_6.data (written by ASE) 

3 	 atoms 
2  atom types
0.0      2.4941531628991829  xlo xhi
0.0      4.0729350596345144  ylo yhi
0.0      3.5272652296077767  zlo zhi
 1.1080211072272329e-16 -4.4408920985006262e-16     -2.0364675298172563  xy xz yz


Atoms 

     1   1                       0                       0                       0
     2   2      1.6627687752661227      2.0364675298172576      1.1757550765359257
     3   2     0.83138438763306099  6.8489834579040199e-16       2.351510153071851
