ats_165.data (written by ASE) 

2 	 atoms 
1  atom types
0.0      5.0346002820482187  xlo xhi
0.0      2.1800458710770285  ylo yhi
0.0      2.0553669583150675  zlo zhi
     1.2586500705120545      1.2586500705120545     0.72668195702567528  xy xz yz


Atoms 

     1   1                       0                       0                       0
     2   1      2.5173001410241089 -2.0117467805932074e-16 -4.6169335739038147e-16
