ats_160.data (written by ASE) 

2 	 atoms 
2  atom types
0.0      2.5173001410241094  xlo xhi
0.0      2.5173001410241094  ylo yhi
0.0      3.5599999999999996  zlo zhi


Atoms 

     1   1                       0                       0                       0
     2   2      1.2586500705120549      1.2586500705120545      1.7799999999999991
