ats_42.data (written by ASE) 

6 	 atoms 
2  atom types
0.0      2.5173001410241094  xlo xhi
0.0      3.5600000000000001  ylo yhi
0.0      7.5519004230723272  zlo zhi


Atoms 

     1   1                       0                       0                       0
     2   1      1.2586500705120545      1.7799999999999985       6.293250352560273
     3   2  2.0328007390972324e-16 -1.5699804057056955e-15      5.0346002820482179
     4   1      1.2586500705120549                    1.78      3.7759502115361649
     5   2 -5.2639694651864835e-16 -1.6691603292388765e-15       2.517300141024108
     6   2      1.2586500705120554      1.7799999999999974       1.258650070512054
