ats_123.data (written by ASE) 

5 	 atoms 
2  atom types
0.0      2.5173001410241094  xlo xhi
0.0      4.1744700262428518  ylo yhi
0.0      5.3669019334841916  zlo zhi
     1.2586500705120547      1.2586500705120542      1.1384918253389573  xy xz yz


Atoms 

     1   1                       0                       0                       0
     2   1      2.5173001410241094      3.7949727511298641      2.1467607733936767
     3   2      3.7759502115361641      3.4154754760168764      4.2935215467873542
     4   1      1.2586500705120547      1.8974863755649318      1.0733803866968383
     5   2      2.5173001410241103      1.5179891004519441      3.2201411600905159
