ats_126.data (written by ASE) 

6 	 atoms 
2  atom types
0.0      4.0729350596345144  xlo xhi
0.0      3.5272652296077762  ylo yhi
0.0      4.9883063257983666  zlo zhi
    -2.0364675298172559  8.8817841970012523e-16 -1.2212453270876722e-15  xy xz yz


Atoms 

     1   1                       0                       0                       0
     2   1      2.0364675298172599      1.1757550765359246       4.156921938165306
     3   2  2.9456148896198693e-15      2.3515101530718501      3.3255375505322453
     4   2 -1.3538184517542438e-16 -1.1586242165043287e-15      2.4941531628991838
     5   2      2.0364675298172612      1.1757550765359253      1.6627687752661231
     6   2  2.7669782430585385e-15      2.3515101530718496     0.83138438763306222
