ats_173.data (written by ASE) 

5 	 atoms 
2  atom types
0.0      2.5173001410241094  xlo xhi
0.0      3.5600000000000001  ylo yhi
0.0       6.293250352560273  zlo zhi
                      0     -1.2586500705120542     -1.7799999999999994  xy xz yz


Atoms 

     1   1                       0                       0                       0
     2   1      1.2586500705120545                    1.78      1.2586500705120547
     3   2  -1.854399270268235e-16 -3.2818192607919627e-16      2.5173001410241094
     4   1      1.2586500705120547                    1.78      3.7759502115361636
     5   2  7.3209355796415607e-17  9.7699626167014032e-18      5.0346002820482187
