ats_29.data (written by ASE) 

6 	 atoms 
2  atom types
0.0      2.8799999999999999  xlo xhi
0.0      4.5536798306424666  ylo yhi
0.0       5.464415796770961  zlo zhi
    -1.4399999999999995  2.2204460492503127e-15     -1.8214719322569868  xy xz yz


Atoms 

     1   1                       0                       0                       0
     2   1      1.4400000000000019 -1.3976805643159408e-15      4.5536798306424675
     3   1  2.2485716992074834e-15      1.8214719322569846       3.642943864513974
     4   1  1.5140441356968193e-15    -0.91073596612849328      2.7322078983854809
     5   1      1.4400000000000026     0.91073596612849139      1.8214719322569868
     6   2  3.2966222344536309e-15      2.7322078983854774     0.91073596612849328
