ats_58.data (written by ASE) 

5 	 atoms 
2  atom types
0.0      3.5599999999999996  xlo xhi
0.0      3.9802009999496257  ylo yhi
0.0      3.9802009999496257  zlo zhi
    -1.7799999999999996      1.7799999999999994  2.2204460492503131e-16  xy xz yz


Atoms 

     1   1                       0                       0                       0
     2   1      3.5599999999999996       1.592080399979851      3.1841607999597006
     3   1      5.3399999999999999       3.184160799959701       2.388120599969775
     4   2                    1.78     0.79604019998992626      1.5920803999798501
     5   2      3.5600000000000018      2.3881205999697763     0.79604019998992481
