ats_7.data (written by ASE) 

4 	 atoms 
2  atom types
0.0      2.8799999999999999  xlo xhi
0.0      4.0729350596345144  ylo yhi
0.0      4.0729350596345135  zlo zhi
-4.4408920985006262e-16     -1.4399999999999995     -2.0364675298172568  xy xz yz


Atoms 

     1   1                       0                       0                       0
     2   2      1.4399999999999999 -1.6518324260813928e-16      2.0364675298172563
     3   2      1.4399999999999999      2.0364675298172563  -7.634188286489344e-16
     4   2 -3.8191672047105379e-16      2.0364675298172568      2.0364675298172576
