ats_87.data (written by ASE) 

4 	 atoms 
2  atom types
0.0      2.5173001410241094  xlo xhi
0.0      3.5600000000000001  ylo yhi
0.0      5.0346002820482179  zlo zhi


Atoms 

     1   1                       0                       0                       0
     2   2      1.2586500705120551      1.7800000000000005      3.7759502115361641
     3   2  8.8668626629674908e-16  -1.873826657058342e-16      2.5173001410241094
     4   2      1.2586500705120549      1.7800000000000002      1.2586500705120542
