ats_34.data (written by ASE) 

4 	 atoms 
2  atom types
0.0      3.5600000000000001  xlo xhi
0.0      3.5600000000000001  ylo yhi
0.0      3.5600000000000001  zlo zhi


Atoms 

     1   1                       0                       0                       0
     2   1                       0      1.7799999999999998      1.7800000000000005
     3   1      1.7799999999999998                       0      1.7800000000000005
     4   2      1.7799999999999998      1.7799999999999998 -1.8738266570583447e-16
