ats_175.data (written by ASE) 

3 	 atoms 
2  atom types
0.0      2.8799999999999999  xlo xhi
0.0      2.8799999999999994  ylo yhi
0.0      4.3200000000000003  zlo zhi
                      0      1.4399999999999997      1.4399999999999988  xy xz yz


Atoms 

     1   1                       0                       0                       0
     2   1      1.4399999999999999      1.4400000000000002      1.4399999999999997
     3   2 -8.2896652505344952e-17 -8.2896652505344964e-17      2.8799999999999994
