ats_143.data (written by ASE) 

4 	 atoms 
2  atom types
0.0      3.5599999999999996  xlo xhi
0.0      3.5600000000000001  ylo yhi
0.0      3.5600000000000001  zlo zhi
 2.2204460492503131e-16      1.7799999999999994                   -1.78  xy xz yz


Atoms 

     1   1                       0                       0                       0
     2   2      1.7799999999999998  9.8809849191638934e-17      1.7799999999999998
     3   2      1.7800000000000002      1.7799999999999998  2.0785673106072127e-16
     4   2  2.4424906541753416e-17      1.7799999999999998      1.7800000000000005
