ats_3.data (written by ASE) 

5 	 atoms 
2  atom types
0.0      2.4941531628991829  xlo xhi
0.0      2.3515101530718505  ylo yhi
0.0      10.182337649086286  zlo zhi
   -0.83138438763306155    -0.83138438763306155     -1.1757550765359248  xy xz yz


Atoms 

     1   1                       0                       0                       0
     2   1     0.83138438763306122      1.1757550765359259      2.0364675298172568
     3   1 -4.2629939805860267e-16  1.2957118687631122e-16      4.0729350596345144
     4   1     0.83138438763306077      1.1757550765359259      6.1094025894517721
     5   2 -4.6800625884049257e-16  8.0303835595682983e-16      8.1458701192690288
