ats_72.data (written by ASE) 

6 	 atoms 
2  atom types
0.0      2.5173001410241094  xlo xhi
0.0      4.3600917421540579  ylo yhi
0.0      6.1661008749452018  zlo zhi


Atoms 

     1   1                       0                       0                       0
     2   1      1.2586500705120547      3.6334097851283804      4.1107339166301342
     3   2  2.6168207644729575e-16      2.9067278281027056      2.0553669583150667
     4   2      1.2586500705120554       2.180045871077029 -2.5898684288264193e-16
     5   2 -2.1237845478189336e-16      1.4533639140513526      4.1107339166301342
     6   2      1.2586500705120565      0.7266819570256754      2.0553669583150675
