ats_150.data (written by ASE) 

5 	 atoms 
2  atom types
0.0      2.5173001410241094  xlo xhi
0.0      2.5173001410241094  ylo yhi
0.0      8.8999999999999986  zlo zhi
  1.854399270268235e-16     -1.2586500705120542      1.2586500705120534  xy xz yz


Atoms 

     1   1                       0                       0                       0
     2   1  4.5705391472284692e-16 -5.9623927062748712e-16      7.1200000000000001
     3   2      1.2586500705120554      1.2586500705120542       5.339999999999999
     4   2  8.1299387510645867e-16 -1.1481134076241273e-16      3.5599999999999996
     5   2      1.2586500705120558      1.2586500705120549      1.7799999999999994
