ats_27.data (written by ASE) 

6 	 atoms 
2  atom types
0.0      4.3600917421540579  xlo xhi
0.0      3.7759502115361641  ylo yhi
0.0      4.1107339166301351  zlo zhi
     2.1800458710770281      1.4533639140513523                       0  xy xz yz


Atoms 

     1   1                       0                       0                       0
     2   1      2.9067278281027051      2.5173001410241089      2.0553669583150684
     3   1      2.1800458710770281       1.258650070512054  8.6168458343498654e-17
     4   1      2.9067278281027042 -2.4133619928562022e-16      2.0553669583150689
     5   1       4.360091742154057      2.5173001410241094  5.4772528668483886e-16
     6   2      5.0867736991797337      1.2586500705120551      2.0553669583150662
