ats_16.data (written by ASE) 

4 	 atoms 
2  atom types
0.0      2.4941531628991829  xlo xhi
0.0       4.703020306143701  ylo yhi
0.0      4.0729350596345144  zlo zhi
   -0.83138438763306122    -0.83138438763306155      2.3515101530718487  xy xz yz


Atoms 

     1   1                       0                       0                       0
     2   1     0.83138438763306088      2.3515101530718523 -5.1729856564647822e-16
     3   1    -0.83138438763306155       1.175755076535925      2.0364675298172568
     4   2     0.83138438763306077     -1.1757550765359255      2.0364675298172563
