ats_45.data (written by ASE) 

5 	 atoms 
2  atom types
0.0      2.4941531628991829  xlo xhi
0.0      4.0729350596345135  ylo yhi
0.0      5.8787753826796285  zlo zhi
-4.4408920985006262e-16    -0.83138438763306199      2.0364675298172563  xy xz yz


Atoms 

     1   1                       0                       0                       0
     2   1     0.83138438763306066      2.0364675298172581      1.1757550765359253
     3   2      1.6627687752661218  8.9844276722908588e-18      2.3515101530718505
     4   1 -2.5811077516019603e-16      2.0364675298172581      3.5272652296077771
     5   2     0.83138438763306044  1.0190644458509626e-15      4.7030203061437019
