ats_54.data (written by ASE) 

4 	 atoms 
2  atom types
0.0      2.8799999999999999  xlo xhi
0.0      4.0729350596345135  ylo yhi
0.0      4.0729350596345135  zlo zhi


Atoms 

     1   1                       0                       0                       0
     2   1      1.4399999999999995      2.0364675298172568 -1.3824471485306942e-16
     3   1      1.4399999999999999  4.3877808278794582e-16      2.0364675298172563
     4   2                       0      2.0364675298172572      2.0364675298172559
