mass 1 51.996100
mass 2 55.845000
pair_style hybrid/overlay soft 2.224 mliap model mliappy LATER descriptor ace coupling_coefficients.yace
Loading python model deferred.
pair_coeff * * soft 2.000000
pair_coeff * * mliap   Cr Fe

thermo 10
velocity all create 1. 4928459 dist gaussian
Loading python model complete.
velocity all create 300.0 4928459 loop geom
fix  a1  all nve
run 10 
Neighbor list info ...
  update: every = 1 steps, delay = 0 steps, check = yes
  max neighbors/atom: 2000, page size: 100000
  master list distance cutoff = 14.92
  ghost atom cutoff = 14.92
  binsize = 7.4600001, bins = 1 1 2
  2 neighbor lists, perpetual/occasional/extra = 2 0 0
  (1) pair soft, perpetual, half/full trim from (2)
      attributes: half, newton on, cut 4.224
      pair build: halffull/trim/newton
      stencil: none
      bin: none
  (2) pair mliap, perpetual
      attributes: full, newton on
      pair build: full/bin/atomonly
      stencil: full/bin/3d
      bin: standard
Per MPI rank memory allocation (min/avg/max) = 4.109 | 4.109 | 4.109 Mbytes
   Step          Temp          E_pair         E_mol          TotEng         Press     
         0   300           -9.7668571      0             -9.5729669     -126211.14    
        10   288.27086     -9.7592764      0             -9.5729667     -126050.7     
Loop time of 0.195844 on 1 procs for 10 steps with 6 atoms

Performance: 4.412 ns/day, 5.440 hours/ns, 51.061 timesteps/s, 306.366 atom-step/s
114.1% CPU use with 1 MPI tasks x 1 OpenMP threads

MPI task timing breakdown:
Section |  min time  |  avg time  |  max time  |%varavg| %total
---------------------------------------------------------------
Pair    | 0.1956     | 0.1956     | 0.1956     |   0.0 | 99.88
Neigh   | 0          | 0          | 0          |   0.0 |  0.00
Comm    | 0.0001479  | 0.0001479  | 0.0001479  |   0.0 |  0.08
Output  | 1.0648e-05 | 1.0648e-05 | 1.0648e-05 |   0.0 |  0.01
Modify  | 7.764e-06  | 7.764e-06  | 7.764e-06  |   0.0 |  0.00
Other   |            | 7.507e-05  |            |       |  0.04

Nlocal:              6 ave           6 max           6 min
Histogram: 1 0 0 0 0 0 0 0 0 0
Nghost:           3583 ave        3583 max        3583 min
Histogram: 1 0 0 0 0 0 0 0 0 0
Neighs:             78 ave          78 max          78 min
Histogram: 1 0 0 0 0 0 0 0 0 0
FullNghs:         6924 ave        6924 max        6924 min
Histogram: 1 0 0 0 0 0 0 0 0 0

Total # of neighbors = 6924
Ave neighs/atom = 1154
Neighbor list builds = 0
Dangerous builds = 0
unfix  a1
min_style  cg
min_modify  dmax 0.000500 line backtrack
minimize 1e-12 1e-12 10000 100000
Per MPI rank memory allocation (min/avg/max) = 5.234 | 5.234 | 5.234 Mbytes
   Step          Temp          E_pair         E_mol          TotEng         Press     
        10   288.27086     -9.7850933      0             -9.5987836     -132468.42    
        20   288.27086     -9.7893152      0             -9.6030056     -132683.7     
        30   288.27086     -9.7935448      0             -9.6072351     -132901.13    
        40   288.27086     -9.7977819      0             -9.6114723     -133123.5     
        50   288.27086     -9.8020277      0             -9.615718      -133346       
        60   288.27086     -9.806282       0             -9.6199724     -133576.09    
        70   288.27086     -9.8105459      0             -9.6242363     -133810.99    
        80   288.27086     -9.8148222      0             -9.6285125     -134050.34    
        90   288.27086     -9.8191071      0             -9.6327974     -134292.45    
       100   288.27086     -9.8234062      0             -9.6370966     -134533.31    
       110   288.27086     -9.8277149      0             -9.6414053     -134776.12    
       120   288.27086     -9.832036       0             -9.6457264     -135018.51    
       130   288.27086     -9.8363686      0             -9.6500589     -135265.59    
       140   288.27086     -9.8407125      0             -9.6544029     -135513.96    
       150   288.27086     -9.845068       0             -9.6587583     -135759.82    
       160   288.27086     -9.8494358      0             -9.6631261     -136008.64    
       170   288.27086     -9.8538141      0             -9.6675045     -136255.13    
       180   288.27086     -9.8582058      0             -9.6718961     -136503       
       190   288.27086     -9.8626089      0             -9.6762992     -136751.08    
       200   288.27086     -9.8670254      0             -9.6807157     -136999.53    
       210   288.27086     -9.8714657      0             -9.685156      -139492.12    
       220   288.27086     -9.8759775      0             -9.6896678     -139754.62    
       230   288.27086     -9.8805132      0             -9.6942035     -142261.98    
       240   288.27086     -9.8851233      0             -9.6988136     -142526.88    
       250   288.27086     -9.8897467      0             -9.703437      -142792.34    
       260   288.27086     -9.8943825      0             -9.7080728     -143058.3     
       270   288.27086     -9.8990335      0             -9.7127239     -143325.13    
       280   288.27086     -9.9036989      0             -9.7173893     -143595.45    
       290   288.27086     -9.9083796      0             -9.7220699     -143868.32    
       300   288.27086     -9.9130745      0             -9.7267648     -144144.51    
       310   288.27086     -9.9314947      0             -9.745185      -145551.98    
       320   288.27086     -9.9362688      0             -9.7499591     -145828.32    
       330   288.27086     -9.9410591      0             -9.7547494     -146106.44    
       340   288.27086     -9.9458637      0             -9.7595541     -146390.45    
       350   288.27086     -9.9506845      0             -9.7643749     -146672.16    
       360   288.27086     -9.9555197      0             -9.76921       -146953.33    
       370   288.27086     -9.960371       0             -9.7740614     -147234.61    
       380   288.27086     -9.9652376      0             -9.778928      -147516       
       390   288.27086     -9.9701214      0             -9.7838117     -147797.97    
       400   288.27086     -9.9750195      0             -9.7887098     -148080.92    
       410   288.27086     -9.9799347      0             -9.793625      -148365.19    
       420   288.27086     -9.9848661      0             -9.7985565     -148655.48    
       428   288.27086     -9.9861498      0             -9.7998401     -148731.75    
Loop time of 9.45775 on 1 procs for 418 steps with 6 atoms

99.7% CPU use with 1 MPI tasks x 1 OpenMP threads

Minimization stats:
  Stopping criterion = linesearch alpha is zero
  Energy initial, next-to-last, final = 
     -9.78509330749512  -9.98614978790283  -9.98614978790283
  Force two-norm initial, final = 0.54099441 0.67003586
  Force max component initial, final = 0.34704593 0.45406211
  Final line search alpha, max atom move = 1.6802528e-08 7.6293913e-09
  Iterations, force evaluations = 418 463

MPI task timing breakdown:
Section |  min time  |  avg time  |  max time  |%varavg| %total
---------------------------------------------------------------
Pair    | 9.4484     | 9.4484     | 9.4484     |   0.0 | 99.90
Neigh   | 0          | 0          | 0          |   0.0 |  0.00
Comm    | 0.0065226  | 0.0065226  | 0.0065226  |   0.0 |  0.07
Output  | 0.00038253 | 0.00038253 | 0.00038253 |   0.0 |  0.00
Modify  | 0          | 0          | 0          |   0.0 |  0.00
Other   |            | 0.002403   |            |       |  0.03

Nlocal:              6 ave           6 max           6 min
Histogram: 1 0 0 0 0 0 0 0 0 0
Nghost:           3583 ave        3583 max        3583 min
Histogram: 1 0 0 0 0 0 0 0 0 0
Neighs:             78 ave          78 max          78 min
Histogram: 1 0 0 0 0 0 0 0 0 0
FullNghs:         6852 ave        6852 max        6852 min
Histogram: 1 0 0 0 0 0 0 0 0 0

Total # of neighbors = 6852
Ave neighs/atom = 1142
Neighbor list builds = 0
Dangerous builds = 0
write_data ./StructureDump/sample.186.dat 
System init for write_data ...
variable etot equal etotal
variable ptot equal press
variable pairp equal epair
variable numat equal atoms
run 0
WARNING: No fixes with time integration, atoms won't move (src/verlet.cpp:60)
Per MPI rank memory allocation (min/avg/max) = 4.11 | 4.11 | 4.11 Mbytes
   Step          Temp          E_pair         E_mol          TotEng         Press     
       428   288.27086     -9.9861498      0             -9.7998401     -174765.7     
Loop time of 2.0211e-05 on 1 procs for 0 steps with 6 atoms

103.9% CPU use with 1 MPI tasks x 1 OpenMP threads

MPI task timing breakdown:
Section |  min time  |  avg time  |  max time  |%varavg| %total
---------------------------------------------------------------
Pair    | 0          | 0          | 0          |   0.0 |  0.00
Neigh   | 0          | 0          | 0          |   0.0 |  0.00
Comm    | 0          | 0          | 0          |   0.0 |  0.00
Output  | 0          | 0          | 0          |   0.0 |  0.00
Modify  | 0          | 0          | 0          |   0.0 |  0.00
Other   |            | 2.021e-05  |            |       |100.00

Nlocal:              6 ave           6 max           6 min
Histogram: 1 0 0 0 0 0 0 0 0 0
Nghost:           3583 ave        3583 max        3583 min
Histogram: 1 0 0 0 0 0 0 0 0 0
Neighs:             74 ave          74 max          74 min
Histogram: 1 0 0 0 0 0 0 0 0 0
FullNghs:         6832 ave        6832 max        6832 min
Histogram: 1 0 0 0 0 0 0 0 0 0

Total # of neighbors = 6832
Ave neighs/atom = 1138.6667
Neighbor list builds = 0
Dangerous builds = 0
print "${etot} ${pairp} ${ptot} ${numat} " append Summary.dat screen no
Total wall time: 0:00:09
