mass 1 51.996100
mass 2 55.845000
pair_style hybrid/overlay soft 2.224 mliap model mliappy LATER descriptor ace coupling_coefficients.yace
Loading python model deferred.
pair_coeff * * soft 2.000000
pair_coeff * * mliap   Cr Fe

thermo 10
velocity all create 1. 4928459 dist gaussian
Loading python model complete.
velocity all create 300.0 4928459 loop geom
fix  a1  all nve
run 100 
Neighbor list info ...
  update: every = 1 steps, delay = 0 steps, check = yes
  max neighbors/atom: 2000, page size: 100000
  master list distance cutoff = 14.92
  ghost atom cutoff = 14.92
  binsize = 7.4600001, bins = 1 1 1
  2 neighbor lists, perpetual/occasional/extra = 2 0 0
  (1) pair soft, perpetual, half/full trim from (2)
      attributes: half, newton on, cut 4.224
      pair build: halffull/trim/newton/tri
      stencil: none
      bin: none
  (2) pair mliap, perpetual
      attributes: full, newton on
      pair build: full/bin/atomonly
      stencil: full/bin/3d
      bin: standard
Per MPI rank memory allocation (min/avg/max) = 4.041 | 4.041 | 4.041 Mbytes
   Step          Temp          E_pair         E_mol          TotEng         Press     
         0   300           -13.338122      0             -13.18301      -382993.82    
        10   424.7323      -13.402575      0             -13.182971     -390888.3     
        20   602.77075     -13.49174       0             -13.180083     -393824.38    
        30   841.12637     -13.645168      0             -13.210271     -404948.54    
        40   1033.1801     -14.006649      0             -13.472453     -426277.5     
        50   1130.8769     -14.233354      0             -13.648645     -454355.45    
        60   1103.7943     -14.038094      0             -13.467388     -434916.84    
        70   960.69895     -13.626246      0             -13.129525     -401911.78    
        80   833.26588     -13.624191      0             -13.193359     -421003.75    
        90   771.84821     -13.873492      0             -13.474415     -445995.8     
       100   781.6269      -13.947085      0             -13.542952     -451183.57    
Loop time of 1.81946 on 1 procs for 100 steps with 5 atoms

Performance: 4.749 ns/day, 5.054 hours/ns, 54.961 timesteps/s, 274.807 atom-step/s
100.6% CPU use with 1 MPI tasks x 1 OpenMP threads

MPI task timing breakdown:
Section |  min time  |  avg time  |  max time  |%varavg| %total
---------------------------------------------------------------
Pair    | 1.8174     | 1.8174     | 1.8174     |   0.0 | 99.89
Neigh   | 0          | 0          | 0          |   0.0 |  0.00
Comm    | 0.0014186  | 0.0014186  | 0.0014186  |   0.0 |  0.08
Output  | 0.00011036 | 0.00011036 | 0.00011036 |   0.0 |  0.01
Modify  | 7.2921e-05 | 7.2921e-05 | 7.2921e-05 |   0.0 |  0.00
Other   |            | 0.0004511  |            |       |  0.02

Nlocal:              5 ave           5 max           5 min
Histogram: 1 0 0 0 0 0 0 0 0 0
Nghost:           3539 ave        3539 max        3539 min
Histogram: 1 0 0 0 0 0 0 0 0 0
Neighs:             45 ave          45 max          45 min
Histogram: 1 0 0 0 0 0 0 0 0 0
FullNghs:         6164 ave        6164 max        6164 min
Histogram: 1 0 0 0 0 0 0 0 0 0

Total # of neighbors = 6164
Ave neighs/atom = 1232.8
Neighbor list builds = 0
Dangerous builds = 0
unfix  a1
min_style  cg
min_modify  dmax 0.000500 line backtrack
minimize 1e-12 1e-12 10000 100000
Per MPI rank memory allocation (min/avg/max) = 5.167 | 5.167 | 5.167 Mbytes
   Step          Temp          E_pair         E_mol          TotEng         Press     
       100   781.6269      -14.682043      0             -14.27791      -523652.31    
       110   781.6269      -14.701149      0             -14.297017     -523042.31    
       120   781.6269      -14.719939      0             -14.315807     -522437.55    
       130   781.6269      -14.738411      0             -14.334279     -521850.89    
       140   781.6269      -14.756564      0             -14.352431     -521293.63    
       150   781.6269      -14.774387      0             -14.370254     -520809.28    
       160   781.6269      -14.791882      0             -14.387749     -520352.57    
       170   781.6269      -14.809043      0             -14.40491      -519926.82    
       180   781.6269      -14.825867      0             -14.421734     -519520.05    
       190   781.6269      -14.842354      0             -14.438221     -519168       
       200   781.6269      -14.858502      0             -14.454369     -518888.02    
       210   781.6269      -14.874309      0             -14.470176     -518637.77    
       220   781.6269      -14.889772      0             -14.485639     -518415.23    
       230   781.6269      -14.904834      0             -14.500701     -518229.36    
       240   781.6269      -14.919213      0             -14.51508      -518080.64    
       250   781.6269      -14.932893      0             -14.52876      -517977.63    
       260   781.6269      -14.94592       0             -14.541787     -516222.55    
       270   781.6269      -14.958357      0             -14.554224     -514495.2     
       280   781.6269      -14.97021       0             -14.566077     -514492.87    
       290   781.6269      -14.981497      0             -14.577364     -514504.87    
       300   781.6269      -14.992274      0             -14.588141     -514378.3     
       310   781.6269      -15.002585      0             -14.598452     -514291.72    
       320   781.6269      -15.012455      0             -14.608322     -514246.41    
       330   781.6269      -15.021909      0             -14.617776     -514232.52    
       340   781.6269      -15.030968      0             -14.626835     -514266.02    
       350   781.6269      -15.039663      0             -14.635531     -514369.97    
       360   781.6269      -15.048017      0             -14.643885     -514497.82    
       370   781.6269      -15.056052      0             -14.651919     -514658.6     
       380   781.6269      -15.063791      0             -14.659659     -514865.7     
       390   781.6269      -15.071264      0             -14.667131     -515117.85    
       400   781.6269      -15.078494      0             -14.674361     -515340.02    
       410   781.6269      -15.085387      0             -14.681254     -515360.1     
       420   781.6269      -15.091925      0             -14.687792     -515429.85    
       430   781.6269      -15.098159      0             -14.694026     -515542.24    
       440   781.6269      -15.104137      0             -14.700005     -515695.95    
       450   781.6269      -15.109903      0             -14.70577      -515892.54    
       460   781.6269      -15.115499      0             -14.711367     -516142.5     
       470   781.6269      -15.120971      0             -14.716838     -516442.1     
       480   781.6269      -15.126179      0             -14.722046     -516776.46    
       490   781.6269      -15.131082      0             -14.726949     -517100.78    
       500   781.6269      -15.135734      0             -14.731601     -517448.54    
       510   781.6269      -15.14018       0             -14.736047     -517805.37    
       520   781.6269      -15.144455      0             -14.740322     -518168.99    
       530   781.6269      -15.14859       0             -14.744458     -518537.05    
       540   781.6269      -15.152605      0             -14.748472     -518907.25    
       550   781.6269      -15.156522      0             -14.75239      -519276.78    
       560   781.6269      -15.160354      0             -14.756221     -519643.22    
       570   781.6269      -15.164114      0             -14.759982     -520002.75    
       580   781.6269      -15.167814      0             -14.763681     -520356.43    
       590   781.6269      -15.171462      0             -14.76733      -520713.97    
       600   781.6269      -15.175067      0             -14.770934     -521067.68    
       610   781.6269      -15.178634      0             -14.774502     -521417.73    
       620   781.6269      -15.182168      0             -14.778035     -521764.34    
       630   781.6269      -15.185674      0             -14.781541     -522107.69    
       640   781.6269      -15.189157      0             -14.785024     -522447.75    
       650   781.6269      -15.19262       0             -14.788487     -522784.08    
       660   781.6269      -15.196068      0             -14.791935     -523116.25    
       670   781.6269      -15.199499      0             -14.795366     -523444.14    
       680   781.6269      -15.20292       0             -14.798787     -523767.78    
       690   781.6269      -15.20633       0             -14.802197     -524087.18    
       700   781.6269      -15.209732      0             -14.805599     -524404.9     
       710   781.6269      -15.213128      0             -14.808995     -524719.6     
       720   781.6269      -15.21652       0             -14.812387     -525035.91    
       730   781.6269      -15.219915      0             -14.815782     -525374.45    
       740   781.6269      -15.223308      0             -14.819175     -525681.59    
       750   781.6269      -15.226702      0             -14.822569     -525998.24    
       760   781.6269      -15.230099      0             -14.825966     -526314.52    
       770   781.6269      -15.233501      0             -14.829368     -526628.46    
       780   781.6269      -15.236907      0             -14.832774     -526939.18    
       790   781.6269      -15.240318      0             -14.836185     -527246.84    
       800   781.6269      -15.243734      0             -14.839602     -527551.57    
       810   781.6269      -15.247159      0             -14.843026     -527853.55    
       820   781.6269      -15.250591      0             -14.846458     -528155.34    
       830   781.6269      -15.254033      0             -14.8499       -528451.55    
       840   781.6269      -15.257474      0             -14.853341     -528465.9     
       850   781.6269      -15.260906      0             -14.856773     -528316.5     
       860   781.6269      -15.264357      0             -14.860224     -528222.43    
       870   781.6269      -15.267852      0             -14.863719     -528173.05    
       880   781.6269      -15.271421      0             -14.867288     -528163.78    
       890   781.6269      -15.275087      0             -14.870954     -528198.22    
       900   781.6269      -15.278774      0             -14.874641     -527825.21    
       910   781.6269      -15.28238       0             -14.878248     -527307.04    
       920   781.6269      -15.285908      0             -14.881775     -526763.33    
       930   781.6269      -15.289394      0             -14.885261     -526256.08    
       940   781.6269      -15.292885      0             -14.888752     -525774.6     
       950   781.6269      -15.296323      0             -14.89219      -525322.94    
       960   781.6269      -15.299481      0             -14.895348     -524851.5     
       970   781.6269      -15.302281      0             -14.898149     -523694.23    
       980   781.6269      -15.30477       0             -14.900637     -522611.11    
       990   781.6269      -15.307074      0             -14.902941     -521608.64    
      1000   781.6269      -15.309291      0             -14.905158     -520699.1     
      1010   781.6269      -15.311499      0             -14.907366     -519916.14    
      1020   781.6269      -15.31375       0             -14.909617     -519252.39    
      1030   781.6269      -15.316074      0             -14.911941     -518700.21    
      1040   781.6269      -15.318408      0             -14.914275     -518263.14    
      1050   781.6269      -15.320784      0             -14.916651     -517919.21    
      1060   781.6269      -15.32323       0             -14.919097     -517652.68    
      1070   781.6269      -15.325776      0             -14.921644     -517428.85    
      1080   781.6269      -15.32844       0             -14.924307     -517284.07    
      1090   781.6269      -15.331238      0             -14.927106     -517186.33    
      1100   781.6269      -15.334184      0             -14.930051     -517128.04    
      1110   781.6269      -15.337301      0             -14.933169     -517147.29    
      1120   781.6269      -15.3406        0             -14.936468     -517184.79    
      1130   781.6269      -15.3441        0             -14.939968     -517260.17    
      1140   781.6269      -15.34782       0             -14.943687     -517372.87    
      1150   781.6269      -15.351774      0             -14.947641     -517518.9     
      1160   781.6269      -15.355869      0             -14.951736     -517728.17    
      1170   781.6269      -15.360084      0             -14.955951     -517968.76    
      1180   781.6269      -15.364414      0             -14.960282     -518225.16    
      1190   781.6269      -15.368858      0             -14.964726     -518492.07    
      1200   781.6269      -15.373414      0             -14.969281     -518767.99    
      1210   781.6269      -15.378082      0             -14.973949     -519051.73    
      1220   781.6269      -15.382857      0             -14.978724     -519362.65    
      1230   781.6269      -15.387753      0             -14.98362      -519720.52    
      1240   781.6269      -15.39276       0             -14.988627     -520096.07    
      1250   781.6269      -15.397881      0             -14.993748     -520472.07    
      1260   781.6269      -15.403112      0             -14.998979     -520835.75    
      1270   781.6269      -15.40845       0             -15.004317     -521211.87    
      1280   781.6269      -15.413893      0             -15.00976      -521616.26    
      1290   781.6269      -15.419443      0             -15.01531      -522005.83    
      1300   781.6269      -15.425093      0             -15.02096      -522399.59    
      1310   781.6269      -15.430847      0             -15.026714     -522805.06    
      1320   781.6269      -15.436696      0             -15.032563     -523237.3     
      1330   781.6269      -15.442643      0             -15.03851      -523691.64    
      1340   781.6269      -15.44868       0             -15.044547     -524144.21    
      1350   781.6269      -15.454811      0             -15.050679     -524600.65    
      1360   781.6269      -15.461037      0             -15.056904     -525055.69    
      1370   781.6269      -15.467353      0             -15.06322      -525526.37    
      1380   781.6269      -15.473758      0             -15.069625     -525983.23    
      1390   781.6269      -15.480256      0             -15.076123     -526410.83    
      1400   781.6269      -15.486847      0             -15.082714     -526817.27    
      1410   781.6269      -15.493544      0             -15.089411     -527247.47    
      1420   781.6269      -15.500337      0             -15.096204     -529394.05    
      1430   781.6269      -15.507184      0             -15.103051     -529855.13    
      1440   781.6269      -15.514136      0             -15.110003     -532003.06    
      1450   781.6269      -15.521152      0             -15.11702      -532508.54    
      1460   781.6269      -15.528283      0             -15.12415      -532983.6     
      1470   781.6269      -15.535527      0             -15.131395     -533476.98    
      1480   781.6269      -15.542882      0             -15.13875      -533996.52    
      1490   781.6269      -15.550348      0             -15.146215     -534554.56    
      1500   781.6269      -15.557921      0             -15.153788     -535139.02    
      1510   781.6269      -15.565596      0             -15.161463     -535735.19    
      1520   781.6269      -15.573373      0             -15.169241     -536318.19    
      1530   781.6269      -15.581257      0             -15.177124     -536934.5     
      1540   781.6269      -15.589245      0             -15.185112     -537553.98    
      1550   781.6269      -15.597336      0             -15.193203     -538165.69    
      1560   781.6269      -15.605458      0             -15.201326     -538416.81    
      1570   781.6269      -15.613536      0             -15.209403     -538685.11    
      1580   781.6269      -15.621598      0             -15.217465     -538990.67    
      1590   781.6269      -15.629664      0             -15.225531     -539307.78    
      1600   781.6269      -15.637746      0             -15.233613     -539669.95    
      1610   781.6269      -15.64586       0             -15.241727     -540052.31    
      1620   781.6269      -15.654013      0             -15.24988      -540482.25    
      1630   781.6269      -15.662209      0             -15.258076     -540924.78    
      1640   781.6269      -15.670451      0             -15.266318     -541396.89    
      1650   781.6269      -15.678743      0             -15.27461      -541895.39    
      1660   781.6269      -15.687089      0             -15.282956     -542405.97    
      1670   781.6269      -15.695486      0             -15.291353     -542784.57    
      1680   781.6269      -15.703933      0             -15.299801     -543104.88    
      1690   781.6269      -15.712444      0             -15.308312     -543428.47    
      1700   781.6269      -15.721029      0             -15.316896     -543765.43    
      1710   781.6269      -15.729698      0             -15.325565     -544141.96    
      1720   781.6269      -15.738453      0             -15.33432      -544521.53    
      1730   781.6269      -15.747284      0             -15.343151     -545019.28    
      1740   781.6269      -15.756125      0             -15.351992     -545335.54    
      1750   781.6269      -15.764914      0             -15.360781     -545664.35    
      1760   781.6269      -15.77367       0             -15.369537     -546006.71    
      1770   781.6269      -15.78241       0             -15.378278     -546377.75    
      1780   781.6269      -15.79114       0             -15.387008     -546754.09    
      1790   781.6269      -15.799871      0             -15.395738     -547100.17    
      1800   781.6269      -15.808604      0             -15.404471     -547376.03    
      1810   781.6269      -15.817351      0             -15.413218     -547678.53    
      1820   781.6269      -15.826111      0             -15.421978     -548106.96    
      1830   781.6269      -15.834898      0             -15.430765     -548374.67    
      1840   781.6269      -15.843707      0             -15.439574     -548673.69    
      1850   781.6269      -15.852543      0             -15.44841      -548990.71    
      1860   781.6269      -15.861407      0             -15.457274     -549334.3     
      1870   781.6269      -15.8703        0             -15.466168     -549703.8     
      1880   781.6269      -15.879225      0             -15.475092     -550087.17    
      1890   781.6269      -15.888173      0             -15.48404      -550475.73    
      1900   781.6269      -15.897156      0             -15.493023     -550887.77    
      1910   781.6269      -15.906167      0             -15.502035     -551300.12    
      1920   781.6269      -15.915207      0             -15.511074     -551723.79    
      1930   781.6269      -15.924275      0             -15.520142     -552158.04    
      1940   781.6269      -15.933371      0             -15.529238     -552601.12    
      1950   781.6269      -15.942497      0             -15.538364     -553052.72    
      1960   781.6269      -15.951653      0             -15.54752      -553515.17    
      1970   781.6269      -15.960839      0             -15.556706     -553996.33    
      1980   781.6269      -15.970053      0             -15.56592      -554479.13    
      1990   781.6269      -15.979305      0             -15.575172     -554971.58    
      2000   781.6269      -15.988583      0             -15.58445      -555471.54    
      2010   781.6269      -15.997892      0             -15.593759     -555978.93    
      2020   781.6269      -16.007235      0             -15.603102     -556493.52    
      2030   781.6269      -16.016605      0             -15.612472     -557015.2     
      2040   781.6269      -16.02601       0             -15.621877     -557543.84    
      2050   781.6269      -16.035447      0             -15.631314     -558080.53    
      2060   781.6269      -16.044913      0             -15.640781     -558639.64    
      2070   781.6269      -16.054409      0             -15.650276     -559220.83    
      2080   781.6269      -16.063932      0             -15.659799     -559822.43    
      2090   781.6269      -16.073484      0             -15.669351     -560429.72    
      2100   781.6269      -16.083057      0             -15.678925     -561042.66    
      2110   781.6269      -16.092663      0             -15.68853      -561661.2     
      2120   781.6269      -16.102295      0             -15.698162     -562285.24    
      2130   781.6269      -16.111953      0             -15.70782      -562914.82    
      2140   781.6269      -16.121643      0             -15.717511     -563542.68    
      2150   781.6269      -16.131359      0             -15.727226     -564144.58    
      2160   781.6269      -16.141094      0             -15.736961     -564447.36    
      2170   781.6269      -16.150762      0             -15.746629     -564366.28    
      2180   781.6269      -16.160362      0             -15.756229     -564248.81    
      2190   781.6269      -16.169819      0             -15.765687     -563474.02    
      2200   781.6269      -16.179122      0             -15.774989     -562766.57    
      2210   781.6269      -16.188286      0             -15.784153     -562134.41    
      2220   781.6269      -16.196817      0             -15.792684     -561548.69    
      2230   781.6269      -16.204639      0             -15.800506     -561007.24    
      2240   781.6269      -16.211879      0             -15.807747     -560542.54    
      2250   781.6269      -16.21862       0             -15.814488     -560152.75    
      2260   781.6269      -16.224934      0             -15.820801     -559816.53    
      2270   781.6269      -16.230866      0             -15.826733     -559535.99    
      2280   781.6269      -16.236458      0             -15.832325     -559304.86    
      2290   781.6269      -16.241743      0             -15.83761      -559119.39    
      2300   781.6269      -16.246747      0             -15.842614     -558976.47    
      2310   781.6269      -16.251493      0             -15.84736      -558873.41    
      2320   781.6269      -16.255995      0             -15.851862     -558807.99    
      2330   781.6269      -16.260275      0             -15.856142     -558778.32    
      2340   781.6269      -16.264346      0             -15.860213     -558782.74    
      2350   781.6269      -16.268224      0             -15.864091     -558819.91    
      2360   781.6269      -16.271921      0             -15.867788     -558888.74    
      2370   781.6269      -16.275455      0             -15.871323     -558988.26    
      2380   781.6269      -16.278806      0             -15.874673     -559116.22    
      2390   781.6269      -16.281989      0             -15.877856     -559270.97    
      2400   781.6269      -16.285035      0             -15.880902     -559451.55    
      2410   781.6269      -16.287982      0             -15.883849     -559657.43    
      2420   781.6269      -16.290819      0             -15.886686     -559885.55    
      2430   781.6269      -16.293453      0             -15.88932      -560122.47    
      2440   781.6269      -16.295913      0             -15.89178      -560363.71    
      2450   781.6269      -16.298223      0             -15.89409      -560548.43    
      2460   781.6269      -16.300401      0             -15.896268     -560753.99    
      2470   781.6269      -16.302456      0             -15.898323     -560966.44    
      2480   781.6269      -16.30441       0             -15.900277     -561164.9     
      2490   781.6269      -16.30629       0             -15.902158     -561382.65    
      2500   781.6269      -16.30812       0             -15.903987     -561612.42    
      2510   781.6269      -16.309911      0             -15.905778     -561819.45    
      2520   781.6269      -16.311661      0             -15.907528     -561811.19    
      2530   781.6269      -16.313214      0             -15.909081     -561517.85    
      2540   781.6269      -16.314544      0             -15.910411     -561334.93    
      2550   781.6269      -16.31572       0             -15.911588     -561243.82    
      2560   781.6269      -16.316786      0             -15.912653     -561211.42    
      2570   781.6269      -16.317769      0             -15.913636     -561223.01    
      2580   781.6269      -16.318691      0             -15.914558     -561267.47    
      2590   781.6269      -16.319568      0             -15.915435     -561336.18    
      2600   781.6269      -16.320414      0             -15.916281     -561423.09    
      2610   781.6269      -16.321238      0             -15.917105     -561524.38    
      2620   781.6269      -16.322045      0             -15.917912     -561636.7     
      2630   781.6269      -16.322843      0             -15.91871      -561757.09    
      2640   781.6269      -16.323636      0             -15.919503     -561883.11    
      2650   781.6269      -16.324426      0             -15.920293     -562012.32    
      2660   781.6269      -16.325218      0             -15.921085     -562142.91    
      2670   781.6269      -16.326012      0             -15.921879     -562273.21    
      2680   781.6269      -16.326809      0             -15.922676     -562402.25    
      2690   781.6269      -16.32761       0             -15.923478     -562529.1     
      2700   781.6269      -16.32842       0             -15.924287     -562655.26    
      2710   781.6269      -16.329236      0             -15.925104     -562783.32    
      2720   781.6269      -16.330056      0             -15.925924     -562909.62    
      2730   781.6269      -16.330888      0             -15.926755     -563035.23    
      2740   781.6269      -16.331727      0             -15.927594     -563165.27    
      2750   781.6269      -16.332575      0             -15.928442     -563299.79    
      2760   781.6269      -16.333429      0             -15.929296     -563446.67    
      2770   781.6269      -16.334297      0             -15.930164     -563581.66    
      2780   781.6269      -16.335172      0             -15.931039     -563719.72    
      2790   781.6269      -16.336058      0             -15.931925     -563857       
      2800   781.6269      -16.336954      0             -15.932821     -563993.62    
      2810   781.6269      -16.337858      0             -15.933725     -564129.57    
      2820   781.6269      -16.338772      0             -15.93464      -564264.94    
      2830   781.6269      -16.339701      0             -15.935568     -564399.75    
      2840   781.6269      -16.340636      0             -15.936503     -564534.01    
      2850   781.6269      -16.341582      0             -15.937449     -564667.83    
      2860   781.6269      -16.342539      0             -15.938406     -564819.3     
      2870   781.6269      -16.343506      0             -15.939374     -564974.76    
      2880   781.6269      -16.344485      0             -15.940352     -565127.15    
      2890   781.6269      -16.345477      0             -15.941344     -565280.08    
      2900   781.6269      -16.346482      0             -15.942349     -565432.78    
      2910   781.6269      -16.347495      0             -15.943363     -565585.22    
      2920   781.6269      -16.348522      0             -15.944389     -565737.46    
      2930   781.6269      -16.34956       0             -15.945427     -565889.47    
      2940   781.6269      -16.350609      0             -15.946476     -566041.28    
      2950   781.6269      -16.351669      0             -15.947536     -566192.91    
      2960   781.6269      -16.352736      0             -15.948604     -566344.35    
      2970   781.6269      -16.353821      0             -15.949689     -566495.61    
      2980   781.6269      -16.354916      0             -15.950783     -566646.72    
      2989   781.6269      -16.163214      0             -15.759081     -553439.36    
Loop time of 55.5231 on 1 procs for 2889 steps with 5 atoms

99.7% CPU use with 1 MPI tasks x 1 OpenMP threads

Minimization stats:
  Stopping criterion = linesearch alpha is zero
  Energy initial, next-to-last, final = 
     -14.6820425661953  -16.3558023268567  -16.1632135207044
  Force two-norm initial, final = 2.1041828 0.2801588
  Force max component initial, final = 1.1489053 0.16406461
  Final line search alpha, max atom move = 1.726707e-07 2.8329152e-08
  Iterations, force evaluations = 2889 2903

MPI task timing breakdown:
Section |  min time  |  avg time  |  max time  |%varavg| %total
---------------------------------------------------------------
Pair    | 55.463     | 55.463     | 55.463     |   0.0 | 99.89
Neigh   | 0.00013166 | 0.00013166 | 0.00013166 |   0.0 |  0.00
Comm    | 0.041805   | 0.041805   | 0.041805   |   0.0 |  0.08
Output  | 0.0032451  | 0.0032451  | 0.0032451  |   0.0 |  0.01
Modify  | 0          | 0          | 0          |   0.0 |  0.00
Other   |            | 0.01452    |            |       |  0.03

Nlocal:              5 ave           5 max           5 min
Histogram: 1 0 0 0 0 0 0 0 0 0
Nghost:           3492 ave        3492 max        3492 min
Histogram: 1 0 0 0 0 0 0 0 0 0
Neighs:             78 ave          78 max          78 min
Histogram: 1 0 0 0 0 0 0 0 0 0
FullNghs:         6112 ave        6112 max        6112 min
Histogram: 1 0 0 0 0 0 0 0 0 0

Total # of neighbors = 6112
Ave neighs/atom = 1222.4
Neighbor list builds = 1
Dangerous builds = 0
write_data ./StructureDump/sample.75.dat 
System init for write_data ...
variable etot equal etotal
variable ptot equal press
variable pairp equal epair
variable numat equal atoms
run 0
WARNING: No fixes with time integration, atoms won't move (src/verlet.cpp:60)
Per MPI rank memory allocation (min/avg/max) = 4.043 | 4.043 | 4.043 Mbytes
   Step          Temp          E_pair         E_mol          TotEng         Press     
      2989   781.6269      -16.163214      0             -15.759081     -553439.36    
Loop time of 1.9222e-05 on 1 procs for 0 steps with 5 atoms

98.8% CPU use with 1 MPI tasks x 1 OpenMP threads

MPI task timing breakdown:
Section |  min time  |  avg time  |  max time  |%varavg| %total
---------------------------------------------------------------
Pair    | 0          | 0          | 0          |   0.0 |  0.00
Neigh   | 0          | 0          | 0          |   0.0 |  0.00
Comm    | 0          | 0          | 0          |   0.0 |  0.00
Output  | 0          | 0          | 0          |   0.0 |  0.00
Modify  | 0          | 0          | 0          |   0.0 |  0.00
Other   |            | 1.922e-05  |            |       |100.00

Nlocal:              5 ave           5 max           5 min
Histogram: 1 0 0 0 0 0 0 0 0 0
Nghost:           3492 ave        3492 max        3492 min
Histogram: 1 0 0 0 0 0 0 0 0 0
Neighs:             78 ave          78 max          78 min
Histogram: 1 0 0 0 0 0 0 0 0 0
FullNghs:         6112 ave        6112 max        6112 min
Histogram: 1 0 0 0 0 0 0 0 0 0

Total # of neighbors = 6112
Ave neighs/atom = 1222.4
Neighbor list builds = 0
Dangerous builds = 0
print "${etot} ${pairp} ${ptot} ${numat} " append Summary.dat screen no
Total wall time: 0:00:57
