mass 1 51.996100
mass 2 55.845000
pair_style hybrid/overlay soft 2.224 mliap model mliappy LATER descriptor ace coupling_coefficients.yace
Loading python model deferred.
pair_coeff * * soft 2.000000
pair_coeff * * mliap   Cr Fe

thermo 10
velocity all create 1. 4928459 dist gaussian
Loading python model complete.
velocity all create 300.0 4928459 loop geom
fix  a1  all nve
run 10 
Neighbor list info ...
  update: every = 1 steps, delay = 0 steps, check = yes
  max neighbors/atom: 2000, page size: 100000
  master list distance cutoff = 14.92
  ghost atom cutoff = 14.92
  binsize = 7.4600001, bins = 1 1 1
  2 neighbor lists, perpetual/occasional/extra = 2 0 0
  (1) pair soft, perpetual, half/full trim from (2)
      attributes: half, newton on, cut 4.224
      pair build: halffull/trim/newton
      stencil: none
      bin: none
  (2) pair mliap, perpetual
      attributes: full, newton on
      pair build: full/bin/atomonly
      stencil: full/bin/3d
      bin: standard
Per MPI rank memory allocation (min/avg/max) = 3.967 | 3.967 | 3.967 Mbytes
   Step          Temp          E_pair         E_mol          TotEng         Press     
         0   300           -12.865245      0             -12.748911     -481578.43    
        10   313.0084      -12.87029       0             -12.748911     -481733.68    
Loop time of 0.152566 on 1 procs for 10 steps with 4 atoms

Performance: 5.663 ns/day, 4.238 hours/ns, 65.545 timesteps/s, 262.182 atom-step/s
107.9% CPU use with 1 MPI tasks x 1 OpenMP threads

MPI task timing breakdown:
Section |  min time  |  avg time  |  max time  |%varavg| %total
---------------------------------------------------------------
Pair    | 0.15235    | 0.15235    | 0.15235    |   0.0 | 99.86
Neigh   | 0          | 0          | 0          |   0.0 |  0.00
Comm    | 0.00012916 | 0.00012916 | 0.00012916 |   0.0 |  0.08
Output  | 1.0748e-05 | 1.0748e-05 | 1.0748e-05 |   0.0 |  0.01
Modify  | 6.789e-06  | 6.789e-06  | 6.789e-06  |   0.0 |  0.00
Other   |            | 7.321e-05  |            |       |  0.05

Nlocal:              4 ave           4 max           4 min
Histogram: 1 0 0 0 0 0 0 0 0 0
Nghost:           3194 ave        3194 max        3194 min
Histogram: 1 0 0 0 0 0 0 0 0 0
Neighs:             36 ave          36 max          36 min
Histogram: 1 0 0 0 0 0 0 0 0 0
FullNghs:         4824 ave        4824 max        4824 min
Histogram: 1 0 0 0 0 0 0 0 0 0

Total # of neighbors = 4824
Ave neighs/atom = 1206
Neighbor list builds = 0
Dangerous builds = 0
unfix  a1
min_style  cg
min_modify  dmax 0.000500 line backtrack
minimize 1e-12 1e-12 10000 100000
Per MPI rank memory allocation (min/avg/max) = 5.092 | 5.092 | 5.092 Mbytes
   Step          Temp          E_pair         E_mol          TotEng         Press     
        10   313.0084      -13.249289      0             -13.12791      -541721.39    
        20   313.0084      -13.254599      0             -13.13322      -542206.14    
        30   313.0084      -13.259907      0             -13.138528     -542687.59    
        40   313.0084      -13.265214      0             -13.143835     -543165.66    
        50   313.0084      -13.270521      0             -13.149143     -543640.49    
        60   313.0084      -13.275829      0             -13.154451     -544112.02    
        70   313.0084      -13.281138      0             -13.15976      -544580.3     
        80   313.0084      -13.286447      0             -13.165068     -545045.34    
        90   313.0084      -13.291756      0             -13.170377     -545507.18    
       100   313.0084      -13.297067      0             -13.175688     -545965.83    
       110   313.0084      -13.302379      0             -13.181        -546421.34    
       120   313.0084      -13.307693      0             -13.186314     -546873.7     
       130   313.0084      -13.313009      0             -13.191631     -547322.95    
       140   313.0084      -13.318329      0             -13.19695      -547769.13    
       150   313.0084      -13.323651      0             -13.202273     -548212.25    
       160   313.0084      -13.328977      0             -13.207598     -548652.36    
       170   313.0084      -13.334307      0             -13.212928     -549089.45    
       180   313.0084      -13.339641      0             -13.218262     -549523.58    
       190   313.0084      -13.344979      0             -13.223601     -549954.77    
       200   313.0084      -13.350325      0             -13.228946     -550383.04    
       210   313.0084      -13.355676      0             -13.234297     -550808.45    
       220   313.0084      -13.361032      0             -13.239654     -551231.01    
       230   313.0084      -13.366396      0             -13.245017     -551650.77    
       240   313.0084      -13.371768      0             -13.250389     -552067.74    
       250   313.0084      -13.377147      0             -13.255768     -552481.97    
       260   313.0084      -13.382534      0             -13.261155     -552893.49    
       270   313.0084      -13.387931      0             -13.266552     -553302.35    
       280   313.0084      -13.393339      0             -13.271961     -553708.57    
       290   313.0084      -13.398755      0             -13.277377     -554112.18    
       300   313.0084      -13.404184      0             -13.282806     -554513.26    
       310   313.0084      -13.409623      0             -13.288245     -554911.8     
       320   313.0084      -13.415043      0             -13.293664     -554801.79    
       330   313.0084      -13.420284      0             -13.298905     -554242.54    
       340   313.0084      -13.425349      0             -13.30397      -553705.52    
       350   313.0084      -13.430277      0             -13.308899     -553193.64    
       360   313.0084      -13.435119      0             -13.313741     -552710.81    
       370   313.0084      -13.439946      0             -13.318567     -552262.4     
       380   313.0084      -13.444861      0             -13.323482     -551856.08    
       390   313.0084      -13.449702      0             -13.328323     -551523.38    
       400   313.0084      -13.454159      0             -13.332781     -551289.63    
       410   313.0084      -13.458345      0             -13.336966     -551140.19    
       420   313.0084      -13.462289      0             -13.340911     -551062       
       430   313.0084      -13.466057      0             -13.344678     -551040.72    
       440   313.0084      -13.469704      0             -13.348326     -551076.34    
       450   313.0084      -13.473271      0             -13.351892     -551142.93    
       460   313.0084      -13.476774      0             -13.355395     -551108.99    
       470   313.0084      -13.479879      0             -13.358501     -550373.85    
       480   313.0084      -13.482529      0             -13.36115      -549807.63    
       489   313.0084      -13.483544      0             -13.362166     -549611.61    
Loop time of 7.76413 on 1 procs for 479 steps with 4 atoms

99.8% CPU use with 1 MPI tasks x 1 OpenMP threads

Minimization stats:
  Stopping criterion = linesearch alpha is zero
  Energy initial, next-to-last, final = 
       -13.24928855896  -13.4835443097644  -13.4835443097644
  Force two-norm initial, final = 0.66635002 0.30692363
  Force max component initial, final = 0.41811835 0.19972174
  Final line search alpha, max atom move = 7.640024e-08 1.5258789e-08
  Iterations, force evaluations = 479 516

MPI task timing breakdown:
Section |  min time  |  avg time  |  max time  |%varavg| %total
---------------------------------------------------------------
Pair    | 7.7548     | 7.7548     | 7.7548     |   0.0 | 99.88
Neigh   | 0          | 0          | 0          |   0.0 |  0.00
Comm    | 0.0063823  | 0.0063823  | 0.0063823  |   0.0 |  0.08
Output  | 0.00048214 | 0.00048214 | 0.00048214 |   0.0 |  0.01
Modify  | 0          | 0          | 0          |   0.0 |  0.00
Other   |            | 0.002495   |            |       |  0.03

Nlocal:              4 ave           4 max           4 min
Histogram: 1 0 0 0 0 0 0 0 0 0
Nghost:           3194 ave        3194 max        3194 min
Histogram: 1 0 0 0 0 0 0 0 0 0
Neighs:             36 ave          36 max          36 min
Histogram: 1 0 0 0 0 0 0 0 0 0
FullNghs:         4816 ave        4816 max        4816 min
Histogram: 1 0 0 0 0 0 0 0 0 0

Total # of neighbors = 4816
Ave neighs/atom = 1204
Neighbor list builds = 0
Dangerous builds = 0
write_data ./StructureDump/sample.87.dat 
System init for write_data ...
variable etot equal etotal
variable ptot equal press
variable pairp equal epair
variable numat equal atoms
run 0
WARNING: No fixes with time integration, atoms won't move (src/verlet.cpp:60)
Per MPI rank memory allocation (min/avg/max) = 3.967 | 3.967 | 3.967 Mbytes
   Step          Temp          E_pair         E_mol          TotEng         Press     
       489   313.0084      -13.483544      0             -13.362166     -536452.69    
Loop time of 1.9385e-05 on 1 procs for 0 steps with 4 atoms

113.5% CPU use with 1 MPI tasks x 1 OpenMP threads

MPI task timing breakdown:
Section |  min time  |  avg time  |  max time  |%varavg| %total
---------------------------------------------------------------
Pair    | 0          | 0          | 0          |   0.0 |  0.00
Neigh   | 0          | 0          | 0          |   0.0 |  0.00
Comm    | 0          | 0          | 0          |   0.0 |  0.00
Output  | 0          | 0          | 0          |   0.0 |  0.00
Modify  | 0          | 0          | 0          |   0.0 |  0.00
Other   |            | 1.938e-05  |            |       |100.00

Nlocal:              4 ave           4 max           4 min
Histogram: 1 0 0 0 0 0 0 0 0 0
Nghost:           3194 ave        3194 max        3194 min
Histogram: 1 0 0 0 0 0 0 0 0 0
Neighs:             44 ave          44 max          44 min
Histogram: 1 0 0 0 0 0 0 0 0 0
FullNghs:         4752 ave        4752 max        4752 min
Histogram: 1 0 0 0 0 0 0 0 0 0

Total # of neighbors = 4752
Ave neighs/atom = 1188
Neighbor list builds = 0
Dangerous builds = 0
print "${etot} ${pairp} ${ptot} ${numat} " append Summary.dat screen no
Total wall time: 0:00:08
