LAMMPS (7 Feb 2024 - Development - 3db1e5f0f6-modified)
  using 4 OpenMP thread(s) per MPI task
Total wall time: 0:00:00
