LAMMPS data file via write_data, version 7 Feb 2024, timestep = 191, units = metal

5 atoms
2 atom types

0 2.5173001410241094 xlo xhi
0 4.174470026242852 ylo yhi
0 5.366901933484192 zlo zhi
1.2586500705120547 1.2586500705120542 1.1384918253389573 xy xz yz

Masses

1 51.9961
2 55.845

Atoms # atomic

1 1 2.530245924034348 0.09735756122476803 0.36884025990644087 -1 0 0
2 1 2.520657570791192 3.863589130659244 2.1228139492551574 0 0 0
3 2 3.780286759510872 3.2237157282588753 3.807338351653583 0 0 0
4 2 1.2578216199822672 2.176261245636097 1.4431974169702912 0 0 0
5 2 2.513973281413559 1.2733954718158353 3.0096383908219777 0 0 0

Velocities

1 0.7213302241742953 -0.6980547519019477 1.8851348478704986
2 -0.3945989273165378 -1.2290352494057726 -0.46476860405187026
3 0.11342979191772928 -1.3349834401217358 -3.6207012792349285
4 -1.462984528213114 1.4404070364823127 3.314419076939514
5 1.0453421266697134 1.6888492018665908 -1.0161908078257718
