LAMMPS data file via write_data, version 7 Feb 2024, timestep = 116, units = metal

6 atoms
2 atom types

0 3.56 xlo xhi
0 3.5600000000000005 ylo yhi
0 5.34 zlo zhi
-8.881784197001252e-16 1.7799999999999998 8.881784197001252e-16 xy xz yz

Masses

1 51.9961
2 55.845

Atoms # atomic

1 1 3.5492293464510283 3.5506615205677883 0.0604345078320511 -1 -1 0
2 1 1.7995988590564937 1.778419744552534 3.4847435798676836 0 0 0
3 2 1.7453070497905827 0.024622475089765953 1.7977013357534974 0 0 0
4 2 1.7944601846937456 1.765847048774415 0.05871245283000884 0 0 0
5 2 3.5756806109512107 3.547275158386161 3.5343214043010653 -1 -1 0
6 2 3.556302750531533 1.7943439113367143 1.7440315252514709 -1 0 0

Velocities

1 -1.134724469046379 -0.03290018633421606 3.3622849560613344
2 1.9740997107457494 1.6646316062211803 -3.4334871726227356
3 -3.5236356681752037 1.2052624586343934 2.050082063722101
4 1.506490047274315 -2.8407240959107303 0.9833452843326266
5 1.5651387436587567 -0.6002130454550723 0.06368923302328068
6 -0.32951768189341357 0.7164040214083796 -3.0308217010968406
