LAMMPS data file via write_data, version 7 Feb 2024, timestep = 272, units = metal

5 atoms
2 atom types

0 2.88 xlo xhi
0 2.8799999999999994 ylo yhi
0 7.199999999999999 zlo zhi
0 -1.4399999999999993 -1.4399999999999997 xy xz yz

Masses

1 51.9961
2 55.845

Atoms # atomic

1 1 0.19562247025287668 -0.010692704083518356 0.9024591242927229 0 0 0
2 1 1.6296578569243088 1.4402541102886794 1.67281677866473 0 0 0
3 2 -0.24448553833585024 0.005001681468919994 3.0100338511255567 0 0 0
4 2 1.2031366155404957 1.447634227688373 3.791430181860817 0 0 0
5 2 0.09930952841196627 0.007776036100642036 5.049799080636575 0 0 0

Velocities

1 0.2679694599485854 0.9687184137225057 5.146209203470048
2 0.00969270602547859 -0.16922064396148334 1.2463665429713322
3 2.387052992270282 1.9711668013158334 2.2996970142900546
4 -3.600473983350165 -4.551921031858133 -1.8889595943391857
5 0.9548956128328765 1.8363587432780681 -6.362729680127074
