LAMMPS data file via write_data, version 7 Feb 2024, timestep = 23, units = metal

8 atoms
2 atom types

0 3.56 xlo xhi
0 3.56 ylo yhi
0 7.12 zlo zhi

Masses

1 51.9961
2 55.845

Atoms # atomic

1 1 3.545098657105423 3.5034866949965227 0.24673090835774533 -1 -1 0
2 1 0.034199770009488054 1.7991563162261297 1.9938456823728345 0 0 0
3 2 1.7535784667409717 0.10437400338008063 1.9131070164209407 0 0 0
4 1 1.7821437105151285 1.6815673449086113 0.2906829187739914 0 0 0
5 2 3.5383798097576977 3.549763326411294 3.334173493741911 -1 -1 0
6 2 3.5503220796322896 1.7757967897200384 5.12822203909655 -1 0 0
7 1 1.818027523223294 3.552576139365618 5.115091649143957 0 -1 0
8 2 1.7828560109413738 1.8323364417294872 3.3405028798933105 0 0 0

Velocities

1 -0.06163201326805714 -0.05654309895752263 2.6436211383802837
2 3.604178828141937 -3.687982218718763 0.6376138310091682
3 -3.1577136377697137 2.3690217081096576 -1.711163411831779
4 -0.4490163072436406 0.9822228762461689 2.181130795865599
5 -2.2239556444621194 -2.4366726490255726 1.7202234776980971
6 -0.9800335294850385 -0.44375262248082786 -2.138973715348961
7 3.5687236736460166 1.2912590265073247 -1.7427531494166348
8 0.1586186567332842 1.8810610171825244 -1.3333390953359785
