LAMMPS data file via write_data, version 7 Feb 2024, timestep = 42, units = metal

6 atoms
2 atom types

0 2.88 xlo xhi
0 4.553679830642467 ylo yhi
0 5.464415796770961 zlo zhi
-1.4399999999999995 2.2204460492503127e-15 -1.8214719322569868 xy xz yz

Masses

1 51.9961
2 55.845

Atoms # atomic

1 1 -0.0030568758915158483 0.025011392451905305 0.14403045956304478 0 0 0
2 1 1.432164117765103 -0.019717302958869976 4.501134294359226 0 0 0
3 2 -0.0037551717240269632 1.8695290066317531 3.522455782342173 0 0 0
4 1 1.4413953472993528 3.6420579922501033 2.622781162108674 -1 -1 0
5 2 1.4637230060271456 0.9102828969250961 1.8455934294432876 0 0 0
6 2 -0.010674139730297433 2.677869258728732 1.0250197908474084 0 0 0

Velocities

1 1.9813319729527186 0.783778718750333 0.9905052946700194
2 -1.061083871419896 -1.1238999566267656 -1.3014123656932324
3 -0.8277963528046466 3.941606601791718 -2.3324027543007135
4 -1.2411522609863632 -3.047995142498216 0.23265292882410651
5 2.3276724048107758 2.507363836759081 0.6490870188652106
6 -1.2010889669427929 -3.2943668370538286 1.7561765144345027
