LAMMPS data file via write_data, version 7 Feb 2024, timestep = 214, units = metal

6 atoms
2 atom types

0 2.88 xlo xhi
0 4.0729350596345135 ylo yhi
0 6.109402589451771 zlo zhi
0 1.4399999999999995 8.881784197001252e-16 xy xz yz

Masses

1 51.9961
2 55.845

Atoms # atomic

1 1 2.8819179350889876 4.056635407131256 0.10655665330992511 -1 -1 0
2 2 1.4366071589530192 0.05687653818622432 1.9956628738242648 0 0 0
3 1 2.875763997496286 4.028444338783229 3.995552197318184 -1 -1 0
4 2 1.4436678678353387 1.9887206873325851 0.12338914171306634 0 0 0
5 2 2.872370228944923 2.0675447117885595 2.0200481541412003 -1 0 0
6 2 1.4492459780815774 2.053846958211581 3.9798515604854177 0 0 0

Velocities

1 -0.21566539563848774 -0.7577998340651829 2.010301455166519
2 -1.1959237120042032 2.006367314567573 -3.5796042248239224
3 -0.4032511343619458 -3.866734342552643 1.3279465636224241
4 1.1702350086921973 -1.354513430409536 2.5154210037196
5 -0.7977074698763085 2.076842283394944 1.3459595823777168
6 1.3996562821605691 1.577109929695442 -3.3899485845655746
