LAMMPS data file via write_data, version 7 Feb 2024, timestep = 100, units = metal

6 atoms
2 atom types

0 2.5173001410241094 xlo xhi
0 4.174470026242851 ylo yhi
0 6.440282320181032 zlo zhi
1.2586500705120538 1.2586500705120542 1.138491825338959 xy xz yz

Masses

1 51.9961
2 55.845

Atoms # atomic

1 1 3.775918770123178 4.043031615293865 0.43640535979971373 -1 -1 0
2 1 2.5172940169020173 2.9732464815033075 5.063609837058035 0 0 0
3 1 2.51731846444562 0.787262363777797 3.9360303084270103 0 0 0
4 1 3.775946259268788 2.77225807141443 3.127454019434138 -1 0 0
5 2 1.2586464493614082 0.45063095373990214 2.128791629247992 0 0 0
6 2 2.5173269565556935 2.2559751432252204 1.4084146464856921 0 0 0

Velocities

1 -0.0806137642402105 1.3396051844558914 2.145208394195762
2 -0.18631708627167134 -0.36806257770486045 2.1825527087026066
3 0.8304969385323219 0.7383491418169327 1.874388947872649
4 -1.1699675793190147 2.937264899201769 -0.5986471966492092
5 3.0109743772518174 -2.771316381008462 -3.954022649652202
6 -2.446366756485235 -1.555553021321197 -1.2632805064620958
