LAMMPS data file via write_data, version 7 Feb 2024, timestep = 21, units = metal

4 atoms
2 atom types

0 2.5173001410241094 xlo xhi
0 4.174470026242853 ylo yhi
0 4.293521546787353 zlo zhi
-1.2586500705120545 -4.440892098500626e-16 -0.7589945502259735 xy xz yz

Masses

1 51.9961
2 55.845

Atoms # atomic

1 1 0.0016166402601910993 -0.006900299973048082 0.12888590110794723 0 0 0
2 1 1.2938783860155705 1.8972449440462908 1.0241482908486748 0 0 0
3 2 1.2741045365792254 -0.3726298313983896 2.1341746401388364 0 0 0
4 2 -0.05077932342790913 1.5167382015558732 3.1513085369704785 0 0 0

Velocities

1 -0.675102632368318 -0.46078067000067674 1.5335803220773256
2 2.96319087767877 -1.6580086473557019 -3.7832204368215216
3 1.004061456777017 0.8651016284212256 1.1101325024044486
4 -3.134452095365733 1.107658354105303 0.9844598938754442
