LAMMPS data file via write_data, version 7 Feb 2024, timestep = 113, units = metal

6 atoms
2 atom types

0 2.517300141024109 xlo xhi
0 4.360091742154057 ylo yhi
0 6.166100874945203 zlo zhi
-2.220446049250313e-16 -1.2586500705120542 -2.180045871077027 xy xz yz

Masses

1 51.9961
2 55.845

Atoms # atomic

1 1 0.21743656303786474 -0.022983027056619504 0.4628472538962854 0 0 0
2 1 0.9172158945097448 -0.6694367208692876 3.687330050048962 0 0 0
3 1 1.4329739926502043 0.8434611042834091 2.0866097165160338 0 0 0
4 1 1.463952508754259 1.9769831674982539 0.20989501231502244 0 0 0
5 2 0.005402187589382268 1.5334808991246434 3.8784275794222873 0 0 0
6 2 -0.23874570647436238 2.877556628828785 2.020540555367058 0 0 0

Velocities

1 4.408094683709338 -2.587753072547731 2.4898947652393106
2 -3.4690223762960075 0.7443511053812729 -4.225987692244851
3 -1.1181345838164523 0.2274837234656978 6.004530691096117
4 1.8923090404232614 -0.8260506257690626 -1.4615430718892444
5 0.04135480212568442 0.6128512442974229 -1.9679511786731863
6 -1.6365226786888107 1.6608143933396118 -0.6454891849255192
