LAMMPS data file via write_data, version 7 Feb 2024, timestep = 24, units = metal

5 atoms
2 atom types

0 2.5173001410241094 xlo xhi
0 2.5173001410241094 ylo yhi
0 8.899999999999999 zlo zhi
1.854399270268235e-16 -1.2586500705120542 1.2586500705120534 xy xz yz

Masses

1 51.9961
2 55.845

Atoms # atomic

1 1 2.499491319261208 0.02610754365713693 0.0267103674731814 -1 0 0
2 1 -0.018336785693865765 2.5144788381330434 7.058925763346704 0 -1 0
3 1 1.2701107922938366 1.26280667267425 5.351671820785105 0 0 0
4 1 -0.001363506562724437 2.4997381659008306 3.5844344847412484 0 -1 0
5 2 1.282904201962105 1.2493955780193855 1.7784412186873013 0 0 0

Velocities

1 -1.7805664565952113 2.6756995675462045 2.9815024943731228
2 -1.8329331069424932 -0.28131089046638774 -6.650825377372353
3 1.145029465047736 0.4368272976879 0.9126631811395077
4 -0.1271078382749957 -1.7301860313928226 2.81803575697214
5 2.4166877958245987 -1.0251457254671912 -0.05714594859398022
