LAMMPS data file via write_data, version 7 Feb 2024, timestep = 72, units = metal

6 atoms
2 atom types

0 2.88 xlo xhi
0 2.8799999999999994 ylo yhi
0 8.64 zlo zhi

Masses

1 51.9961
2 55.845

Atoms # atomic

1 1 0.003673856735165515 2.8679884328604257 0.08761062590550625 0 -1 0
2 2 1.4436920667349584 1.4126296481738647 1.730421908986674 0 0 0
3 1 2.87215526415482 0.04747135257933749 2.9916245322466377 -1 0 0
4 2 1.4508973117301416 1.4411873729052531 4.297372827119689 0 0 0
5 2 0.01827115623269859 2.8716473689685214 5.532222377639583 0 -1 0
6 2 1.4097647454136135 1.4413224697826346 6.96146133303759 0 0 0

Velocities

1 -0.4570200298860325 1.0927234666427101 1.1341437264353704
2 2.666754815921419 -0.6529615072654715 1.9388519836334315
3 -1.7753018505239906 2.1404701100096615 0.1257633965609283
4 0.6949061451698114 -1.7495373705024635 -4.639300440550584
5 1.8740679166427494 -1.1273996620572297 1.9563682693866546
6 -3.1572611236649033 0.5195402887556974 -0.42899272424365786
