LAMMPS data file via write_data, version 7 Feb 2024, timestep = 171, units = metal

36 atoms
2 atom types

0 5.76 xlo xhi
0 8.64 ylo yhi
0 8.64 zlo zhi

Masses

1 51.9961
2 55.845

Atoms # atomic

1 2 0.009095600341422625 8.58519591030324 0.3971059190343793 0 -1 0
2 2 1.3956119838918708 1.3620385469329306 1.4680894345451008 0 0 0
3 2 5.72649526087975 8.44354667008234 2.991807531281411 -1 -1 0
4 1 1.3364852059431618 1.334943244308265 4.23923851062557 0 0 0
5 1 5.747223326144021 8.332750197874462 5.5016456895783685 -1 -1 0
6 1 1.2886374035770625 1.0993087004628253 6.846181041232299 0 0 0
7 2 5.688033014120565 2.9066726208541067 8.351773227897825 -1 0 -1
8 2 1.639180849505366 4.432247266702834 1.8587540499444695 0 0 0
9 1 5.756006924109767 2.972822942214027 3.131277865147035 -1 0 0
10 2 1.5088866447195968 4.450590274410273 4.072683951557811 0 0 0
11 1 0.2688348822642225 2.877299468579816 5.421932960805584 0 0 0
12 1 1.4520361506755446 4.260178678144572 7.252895551692929 0 0 0
13 2 5.674405106558469 5.940352870018097 0.2529733685590513 -1 0 0
14 2 1.4981671264030678 7.180866360183408 1.8161809009167684 0 0 0
15 2 5.659517841719192 5.845277237282474 2.7543138563262697 -1 0 0
16 1 1.5126479874812266 7.0409302991635485 4.254772048053496 0 0 0
17 1 5.49834448462641 5.998053431318701 5.454206538933296 -1 0 0
18 1 1.252527992970624 6.990710303935952 6.742250634001534 0 0 0
19 2 3.141261772199487 0.046895407371797905 0.39860044077007634 0 0 0
20 2 4.5049029884703256 1.5533244523381569 1.4798522768239755 0 0 0
21 1 2.8477761955176932 0.2653745297664886 3.0194768695436296 0 0 0
22 2 4.152536916186549 1.2785413990076102 4.503964464628016 0 0 0
23 1 2.915097206265746 8.409602823166704 5.622232934255522 0 -1 0
24 1 4.0989176916855765 1.2693677305937907 6.976523387561043 0 0 0
25 1 2.722114135450715 3.113561002383472 0.4337596772452087 0 0 0
26 1 4.414142778481845 4.369958266966611 1.60228873238075 0 0 0
27 1 2.7725654391613115 2.683056044550616 2.832547102678199 0 0 0
28 2 4.456420254140437 4.151795651457449 4.486824283480963 0 0 0
29 2 2.8772758978321815 3.0497079059627286 5.596458543758591 0 0 0
30 2 4.1064309355150455 4.395688842033655 6.877897875133572 0 0 0
31 1 3.0618599708634586 5.906691044633355 8.365961784144554 0 0 -1
32 2 4.175077268145415 7.267657973246391 1.8992014725883235 0 0 0
33 1 3.0678567674693817 5.790845449323613 3.132936086500497 0 0 0
34 2 4.243114268495161 7.335960479497148 4.2101571457476545 0 0 0
35 1 2.97115495105392 5.762479463939055 5.341474932374646 0 0 0
36 2 4.61963629870502 7.407786387058052 7.233046266280671 0 0 0

Velocities

1 -0.8331304946699496 -1.122024569724984 1.598489399160311
2 0.2097562851977322 -0.10864052577223847 -0.3126652428525444
3 0.1603461974737594 -1.8052859524092197 1.592674708123495
4 -0.7923434153123484 -1.4066419323123636 -1.5303481553019522
5 0.17359501303341357 -1.63088359590342 -1.2887529399364612
6 -1.6005855530960744 -3.281515305479684 -1.8094846033423067
7 -1.1468661326650835 0.16395623321909694 -2.128602784424325
8 0.1399371743596619 3.023836974117518 5.007244844870651
9 -0.027247331493496653 1.1966596574445354 1.338284231736555
10 0.5538646343287787 0.6943758945126853 -4.0147507013143935
11 2.78232569071618 -0.7047792603026062 -2.2157075099905956
12 0.7526633038808859 -0.06963760668618504 1.9725309082545808
13 -1.027551150647151 1.3702983526613388 1.0573582110740953
14 0.12814954367580847 0.4228472383399238 2.3082496062993916
15 -0.9047177300465686 1.2490200667610114 -2.8337299240334053
16 -1.1401463831529832 -0.11777617934737888 -1.9817323828499684
17 -3.32877974665639 2.6732300483532083 -2.0870920934872856
18 -1.054794090402827 -2.5697094250653123 -1.5800209033527042
19 1.0943139439953573 -1.1968894498621863 1.8660052113561527
20 3.3864951036224564 2.5835856461588893 0.19821205899333902
21 -0.7689635582666631 2.4014950965043145 -0.10024313695359054
22 -0.5619656144343255 -0.23513410782299865 1.5945178507206954
23 -2.3161209835682492 -2.6175041477999064 3.354153344553046
24 -2.338255266678334 -1.5038767833731563 -0.29655620696226764
25 -0.22099522816196823 0.39413392237993267 1.0755937467510248
26 1.5724619495496774 0.16289627578916288 -0.005469718339917195
27 -0.9900089028840706 -2.7441237393105915 -2.1677851044587015
28 1.4591956253432046 -2.346467351152358 2.2667777833616056
29 -0.41226684425557536 1.125148136057468 -0.5800887033069232
30 -1.7984283834048314 1.0792965716059488 -1.0429240227459384
31 1.8587708515810788 0.9909580639922762 -2.148650645529627
32 -1.6177680121944085 1.5802579746677308 2.65540737045201
33 2.1783262998589454 1.2458720334130189 2.2103452871088956
34 0.9521274681281652 -0.2087249497205309 -2.992310462547636
35 2.5988616680020336 -1.258052504223573 -1.9621878014651462
36 2.6963287228300534 1.960587810918231 2.3475904573575725
