LAMMPS data file via write_data, version 7 Feb 2024, timestep = 185, units = metal

4 atoms
2 atom types

0 2.5173001410241094 xlo xhi
0 2.5173001410241094 ylo yhi
0 7.12 zlo zhi

Masses

1 51.9961
2 55.845

Atoms # atomic

1 1 2.51530743450172 2.4912137995853945 0.04805885502148997 -1 -1 0
2 2 1.2609829497949794 1.2686883520434107 5.238216920772383 0 0 0
3 2 0.012044247514765585 0.03347836004485829 3.5467332933314726 0 0 0
4 2 1.246156768560395 1.2407489351981567 1.8488311785223062 0 0 0

Velocities

1 -0.1549926221773138 -0.8709432201504448 2.85885017571474
2 0.21901849062447273 1.4936138893061754 -2.8827618789955585
3 1.2260891175292354 2.582790162968625 1.148935349125477
4 -1.3007972512373538 -3.265487215149463 -0.9279884870782757
