LAMMPS data file via write_data, version 7 Feb 2024, timestep = 146, units = metal

5 atoms
2 atom types

0 2.88 xlo xhi
0 4.553679830642466 ylo yhi
0 4.553679830642467 zlo zhi
1.4399999999999995 -1.4399999999999997 -1.3322676295501878e-15 xy xz yz

Masses

1 51.9961
2 55.845

Atoms # atomic

1 1 2.637227919279837 0.16116800019444727 0.37378402608900113 -1 0 0
2 1 1.610621111742025 2.0451961005786963 1.1336659714905226 0 0 0
3 2 3.037881547016931 3.504837321973866 1.7473039877387007 0 0 0
4 2 0.1633297022092186 0.8845140730381278 2.489832556720473 1 0 0
5 2 1.1852489427193655 2.53869210764088 3.4049933800134187 1 0 0

Velocities

1 -1.4558411167953114 2.0657112203576946 5.078159492033056
2 2.0632466119206887 0.12493098328496016 0.8800671288111727
3 0.4713086790715868 1.0925355353316715 0.16369969862503814
4 1.1014718287937666 -1.312116925351056 -3.5766624438615016
5 -2.138322935389544 -1.8200792973263704 -2.134616217966655
