LAMMPS data file via write_data, version 7 Feb 2024, timestep = 114, units = metal

4 atoms
2 atom types

0 2.5173001410241094 xlo xhi
0 2.1800458710770285 ylo yhi
0 8.22146783326027 zlo zhi
1.2586500705120545 1.2586500705120542 0.7266819570256766 xy xz yz

Masses

1 51.9961
2 55.845

Atoms # atomic

1 1 1.3780461560891462 2.1731350247424803 0.6442848670617018 0 -1 0
2 1 3.5707149987978837 1.8619870302062846 5.668140656959845 0 0 0
3 2 2.5489305993204336 1.6336686037129482 3.7365074030659797 0 0 0
4 2 1.3077568198279148 0.8473610068866859 2.299388442248166 0 0 0

Velocities

1 1.2693744064746078 -0.9714886480461085 8.986258270050902
2 -2.0392586129855426 -3.2233653297220157 -6.412540854944173
3 0.4867273721734271 1.1299683709762034 -7.946345511174709
4 0.23009555181552363 2.775771568381461 5.550011585350903
