LAMMPS data file via write_data, version 7 Feb 2024, timestep = 2989, units = metal

5 atoms
2 atom types

0 2.5173001410241094 xlo xhi
0 3.56 ylo yhi
0 6.293250352560273 zlo zhi
0 -1.2586500705120542 -1.7799999999999994 xy xz yz

Masses

1 51.9961
2 55.845

Atoms # atomic

1 1 0.0034834147376182067 3.0506442706612718 1.1886532416583484 0 -1 0
2 1 1.2621868597316581 1.27347752055745 1.2478200144094693 0 0 0
3 1 0.003253904465104762 0.9136565635170436 2.833496112819728 0 0 0
4 1 1.2617277345495936 2.7037061201153647 2.7645191045476136 0 0 0
5 2 0.0024353758212252163 -0.8253684594260877 4.556693361799741 0 0 0

Velocities

1 -4.791252537904814 -1.9883114734747434 6.38305628784451
2 3.384646468654218 1.246331314216318 -4.8101106653213055
3 5.050464766922486 0.32782214529457243 2.400275233476819
4 -1.3962761229886091 0.6210326232183598 -2.163522020018464
5 -2.092676664186403 -0.1926165792865695 -1.684972363606071
