LAMMPS data file via write_data, version 7 Feb 2024, timestep = 33, units = metal

5 atoms
2 atom types

0 2.494153162899183 xlo xhi
0 4.0729350596345135 ylo yhi
0 5.8787753826796285 zlo zhi
-4.440892098500626e-16 -0.831384387633062 2.0364675298172563 xy xz yz

Masses

1 51.9961
2 55.845

Atoms # atomic

1 1 0.010925382899808989 3.890608131181993 0.3624282707820098 0 -1 0
2 2 1.0454408025463748 2.1373894421961586 1.5010160570448128 0 0 0
3 2 1.78198785656548 4.20534755093251 2.4018459521677986 0 -1 0
4 2 -0.2274402632952264 2.1010923670921287 3.2597578043576205 0 0 0
5 2 0.7148694062120339 3.957276071334539 4.233526138538995 0 -1 0

Velocities

1 0.3133217055169989 -0.18147312053622444 1.5175519545183191
2 0.8818715761723934 -2.6860946428407204 0.879515639375957
3 -1.757605480269025 2.541127008905855 -3.1060585407387693
4 -1.4081441231429372 -2.10289487418104 -1.145271902573305
5 1.992150804887835 2.4168282977607003 1.9588542312379347
