LAMMPS data file via write_data, version 7 Feb 2024, timestep = 500, units = metal

6 atoms
2 atom types

0 2.5173001410241094 xlo xhi
0 2.1800458710770285 ylo yhi
0 12.332201749890405 zlo zhi
-1.2586500705120545 0 -2.220446049250313e-15 xy xz yz

Masses

1 51.9961
2 55.845

Atoms # atomic

1 1 -0.006699306217916666 0.03435001912088428 0.06924436140450034 0 0 0
2 1 -0.0047097045523673 1.4470351494566454 10.055597292477069 0 0 0
3 1 1.2430789161674514 0.7212542348015409 8.136051107219595 0 0 0
4 2 0.003694330294652555 0.059488929979982424 6.219154253707829 0 0 0
5 1 0.02388836165988495 1.408096427407697 4.251211411283199 0 0 0
6 2 1.2575441600199493 0.6884883670383678 2.101097480744817 0 0 0

Velocities

1 -0.6656523195888251 0.8079010542397538 3.538094209010592
2 -0.4702875054324907 -0.6340884299919344 1.4840380576867875
3 -1.60572782216911 -1.0207153175068977 -0.2818315284711604
4 0.32011839891648447 3.078482135646002 1.4764471212591652
5 2.0428391224455718 -1.1465533816559528 -2.3292046018389048
6 0.3305460805442703 -1.2224172879982391 -3.7213678091848243
