LAMMPS data file via write_data, version 7 Feb 2024, timestep = 26, units = metal

6 atoms
2 atom types

0 2.88 xlo xhi
0 4.0729350596345135 ylo yhi
0 6.10940258945177 zlo zhi
-8.881784197001252e-16 0 -2.036467529817253 xy xz yz

Masses

1 51.9961
2 55.845

Atoms # atomic

1 1 2.856622410346427 0.02741753306883856 0.07384872224380559 -1 0 0
2 1 1.4463624854227133 -0.0029617970011549533 2.0369921708788006 0 0 0
3 1 0.025456431803950134 0.02323947434095075 4.045119083177822 0 0 0
4 1 1.4094220048329051 1.975429477990894 0.05831889117942288 0 0 0
5 2 2.8772427208910294 2.0374371526156234 1.9853902990152617 -1 0 0
6 2 1.4633587604224207 2.048452682074582 4.022420163055933 0 0 0

Velocities

1 -2.3147267689721143 2.1870595678192837 2.532002121820474
2 0.4884404034679958 -0.502095932571 2.1717446317852103
3 2.647151685214819 1.7447072636899423 -0.6960910364699123
4 -3.047638450049912 -4.020909625173963 1.016740784076586
5 -0.26551403421020314 -0.6100994779057405 -2.398002949585787
6 2.3388154642832766 1.160589368374466 -2.2801065126165203
