LAMMPS data file via write_data, version 7 Feb 2024, timestep = 179, units = metal

4 atoms
2 atom types

0 2.5173001410241094 xlo xhi
0 4.174470026242853 ylo yhi
0 4.293521546787353 zlo zhi
-1.2586500705120545 -4.440892098500626e-16 -0.7589945502259735 xy xz yz

Masses

1 51.9961
2 55.845

Atoms # atomic

1 1 1.2587087392960448 4.157482975386696 0.06746453693992588 -1 -1 0
2 2 1.2966220510954962 1.906929647726231 1.109091827684904 0 0 0
3 2 1.2776589536243979 -0.3594888904608403 2.1129286845568056 0 0 0
4 2 -0.05756088454337526 1.5051633474833763 3.151510944764908 0 0 0

Velocities

1 -0.7075046271136596 -0.5301706096961042 1.2502240992446951
2 2.8399993757288735 -1.532994019223692 -3.254728367533094
3 1.011337281691347 0.9230486170161839 0.9719096022153143
4 -3.192594042291479 1.103576059183419 1.1187615124439831
