LAMMPS data file via write_data, version 7 Feb 2024, timestep = 24, units = metal

6 atoms
2 atom types

0 2.494153162899183 xlo xhi
0 4.703020306143703 ylo yhi
0 6.10940258945177 zlo zhi
0.831384387633061 0.8313843876330616 1.1757550765359266 xy xz yz

Masses

1 51.9961
2 55.845

Atoms # atomic

1 1 3.0918702730507532 4.492166683139012 0.16208279376757354 -1 -1 0
2 2 0.8491571316803195 1.0670776304339311 2.051193316217841 0 0 0
3 2 1.678548118959286 2.4038619614215877 3.5440901009698536 0 0 0
4 2 1.798658751988124 2.348132988376311 0.6089378265947767 0 0 0
5 2 2.5129950741138893 3.742689955113459 2.099343983178597 0 0 0
6 2 3.3709208523366057 4.75815200609051 3.753157158174892 0 0 0

Velocities

1 0.7701219853677321 0.9940039926846396 0.9592294695779797
2 -0.40746307697919903 0.7687521918590989 -2.0909100532314877
3 -1.7383278277298975 2.310222295996515 1.6033058589252467
4 3.2636741625751067 -2.359078661596003 -3.8685684644766694
5 1.1273560361894133 -0.9079385345497066 1.8254163930668321
6 -2.9622836089158247 -0.7374534149802013 1.637637966439085
