LAMMPS data file via write_data, version 7 Feb 2024, timestep = 24, units = metal

6 atoms
2 atom types

0 2.5173001410241094 xlo xhi
0 4.174470026242851 ylo yhi
0 6.440282320181032 zlo zhi
1.2586500705120538 1.2586500705120542 1.138491825338959 xy xz yz

Masses

1 51.9961
2 55.845

Atoms # atomic

1 1 3.775798607562833 4.154816192113855 0.06785112582771687 -1 -1 0
2 1 2.5173227117112353 3.0235405464914846 5.336919610002706 0 0 0
3 2 2.517381858751199 0.7669815192328551 4.227058981838072 0 0 0
4 1 1.258639616615783 2.678825620568863 3.1602467328902972 0 0 0
5 2 1.2586522808600424 0.3839438436829055 2.153785340150076 0 0 0
6 2 2.5173557001315086 2.274296906864563 1.1548440097437132 0 0 0

Velocities

1 -0.085108485266331 1.3319267230787812 2.138426547010803
2 -0.19084696025207903 -0.37630894523314246 2.1757832808338575
3 0.7949310742806187 0.7266299957459341 1.7817109185586815
4 -1.174824578503741 2.9301177594315826 -0.6063415471339889
5 3.0075078023097 -2.7803619804763313 -3.962832871971934
6 -2.451648238089859 -1.5641943035643497 -1.271195889019554
