LAMMPS data file via write_data, version 7 Feb 2024, timestep = 33, units = metal

6 atoms
2 atom types

0 2.88 xlo xhi
0 4.0729350596345135 ylo yhi
0 6.10940258945177 zlo zhi
-8.881784197001252e-16 0 -2.036467529817253 xy xz yz

Masses

1 51.9961
2 55.845

Atoms # atomic

1 1 2.8770397205891616 -0.21005918285073638 0.8984285647871003 -1 0 0
2 1 1.4420127666406801 0.5019048125216319 2.3130762784997425 0 0 0
3 1 0.0027806918909126246 -0.005165542939121082 3.872497338219989 0 0 0
4 1 1.437009058692875 1.2996097481473228 0.26570339510961527 0 0 0
5 1 0.00034594036999521354 1.9659717762197604 1.7117590556778461 0 0 0
6 2 1.440811821816374 2.557140978352921 3.1573405466092312 0 0 0

Velocities

1 -2.3330691834641453 2.277026350711423 2.1099972978547203
2 0.47217290055756916 -0.678179980610607 2.1854911455597255
3 2.634900633157726 1.6694202827948317 -0.4854914151278684
4 -3.0673403204536123 -3.7930630038543205 0.6085478919761194
5 -0.20679106570851663 -0.7311314303676894 -2.192351894126313
6 2.327815478054095 1.169367830792795 -2.072761307302174
