LAMMPS data file via write_data, version 7 Feb 2024, timestep = 152, units = metal

4 atoms
2 atom types

0 2.5173001410241094 xlo xhi
0 4.360091742154057 ylo yhi
0 4.110733916630135 zlo zhi
0 0 -1.4533639140513532 xy xz yz

Masses

1 51.9961
2 55.845

Atoms # atomic

1 1 2.5096503769908844 -0.005539796214959123 0.09675316463039726 -1 0 0
2 1 1.2818474756670128 0.7432682721810369 4.0589565935332415 0 0 -1
3 1 1.2489126029016318 -0.7206602048108001 2.0701268493351432 0 0 0
4 2 2.5118982143719286 1.4382945390176993 1.997601269439004 -1 0 0

Velocities

1 -0.8598568658832278 -0.14729025893756054 2.8974704582160498
2 2.3811793199777873 1.2862617619459065 -1.9033260227048068
3 -0.9284613698694493 1.7799754906920264 2.064391846073125
4 -0.5520004337268737 -2.717769894872308 -2.847738532561359
