LAMMPS data file via write_data, version 7 Feb 2024, timestep = 17, units = metal

5 atoms
2 atom types

0 4.072935059634515 xlo xhi
0 3.5272652296077767 ylo yhi
0 4.156921938165305 zlo zhi
2.036467529817257 2.0364675298172568 1.1757550765359244 xy xz yz

Masses

1 51.9961
2 55.845

Atoms # atomic

1 1 6.109403914817023 3.525791487108482 0.06125251473981155 -1 -1 0
2 2 6.109402589282307 3.502041422127516 2.2456711710240302 0 0 0
3 2 4.072935059168895 2.465624337732179 1.0515427750186668 0 0 0
4 2 4.072933732910887 2.073027077990756 3.2203423386592664 0 0 0
5 2 2.0364675318107186 1.3668215169362474 1.7350350768888327 0 0 0

Velocities

1 0.31945068091042583 1.1584745017530949 2.184854614486961
2 -1.9420623987359191 -0.5011025808015209 -3.140106648690678
3 -1.6990961389109023 3.4048860757479176 0.548853529030836
4 2.244779682552977 -2.1986489722479714 1.8159005220162094
5 1.0989450732031365 -1.7837656631873524 -1.258919387678697
