LAMMPS data file via write_data, version 7 Feb 2024, timestep = 108, units = metal

6 atoms
2 atom types

0 3.5599999999999996 xlo xhi
0 3.9802009999496257 ylo yhi
0 4.776241199939551 zlo zhi
1.7799999999999996 0 -1.5920803999798498 xy xz yz

Masses

1 51.9961
2 55.845

Atoms # atomic

1 1 3.615763925942326 0.15023853662198178 0.45974683963990365 -1 0 0
2 1 3.4257156233713753 2.5103709883864838 0.7212307350860232 -1 0 0
3 2 1.7135555181576008 0.6474896695107966 1.63787221658287 0 0 0
4 2 1.8527033964908968 3.101807057111962 2.3215591049813322 0 -1 0
5 2 3.4671543157096627 1.398653233987718 2.8294108044539494 -1 0 0
6 2 1.9397312250938081 0.17061694513849646 3.9973570764163333 0 0 0

Velocities

1 -3.6775967207283675 0.41672363784145955 1.2881395430666276
2 -1.4092446261808482 1.244227925635949 -0.45154072388836364
3 3.417610912234481 0.21285789638831693 4.372967153115881
4 0.6612099624859733 -1.5120664029486028 0.6719790043034821
5 -0.8349546099950022 -1.3139111896457147 -4.6294342239319315
6 1.492384274410116 1.0666427763433781 -1.194451424254281
