LAMMPS data file via write_data, version 7 Feb 2024, timestep = 252, units = metal

2 atoms
1 atom types

0 4.988306325798366 xlo xhi
0 2.3515101530718505 ylo yhi
0 2.036467529817257 zlo zhi
-0.8313843876330616 -0.8313843876330616 -1.1757550765359253 xy xz yz

Masses

1 55.845

Atoms # atomic

1 1 -0.04065583411202185 0.005307562070296326 0.12328808593749976 0 0 0
2 1 0.872040221745081 1.170447514465629 1.913179443879754 0 -1 -1

Velocities

1 -1.7290382896087482 -0.6274101731501271 1.8211534202818414
2 1.729038289608748 0.6274101731501266 -1.8211534202818416
