LAMMPS data file via write_data, version 7 Feb 2024, timestep = 133, units = metal

3 atoms
2 atom types

0 2.5173001410241094 xlo xhi
0 2.1800458710770285 ylo yhi
0 6.166100874945202 zlo zhi
-1.2586500705120545 4.440892098500626e-16 -1.1102230246251565e-15 xy xz yz

Masses

1 51.9961
2 55.845

Atoms # atomic

1 1 1.1650970287810647 2.1122974177394522 0.3983829156291197 -1 -1 0
2 2 0.04072470707336355 1.481996452614797 3.671872713054185 0 0 0
3 2 1.2981443299557658 0.7542803200637129 2.122427084461557 0 0 0

Velocities

1 -2.3232145736012817 -2.4659802006477864 4.17018847152839
2 0.15736188014795455 -0.699688065562976 -4.2728850534016924
3 2.005734140810579 2.9957101465174603 0.3901106459446608
