LAMMPS data file via write_data, version 7 Feb 2024, timestep = 141, units = metal

4 atoms
2 atom types

0 2.494153162899183 xlo xhi
0 2.3515101530718505 ylo yhi
0 8.145870119269027 zlo zhi
-0.8313843876330616 0 8.881784197001252e-16 xy xz yz

Masses

1 51.9961
2 55.845

Atoms # atomic

1 1 -0.7957688630490932 2.2921723351443877 1.0215999351580392 0 -1 0
2 1 0.9637745523805314 1.2075305922529809 2.2922976355123508 0 0 0
3 1 0.11455931655808174 0.06602685389755923 3.1490682225389577 0 0 0
4 2 0.5684006045593011 1.1400130723018786 5.777410088852573 0 0 0

Velocities

1 2.6208621246243533 2.242573961609981 15.972463986776898
2 -1.781787690102618 -4.324523880559161 8.55190556792642
3 1.9262569725119922 2.4259717275538097 -18.3403568146862
4 -2.574741666635624 -0.32031143992097966 -5.7578036499454734
