LAMMPS data file via write_data, version 7 Feb 2024, timestep = 23, units = metal

6 atoms
2 atom types

0 2.5173001410241094 xlo xhi
0 2.5173001410241085 ylo yhi
0 10.68 zlo zhi

Masses

1 51.9961
2 55.845

Atoms # atomic

1 1 2.51721596270064 0.03127526591466717 0.09828342266427421 -1 0 0
2 1 1.2323423659823947 1.2892874166014845 8.791025574611629 0 0 0
3 2 0.012693784552110609 2.498553418858105 6.894717268451724 0 -1 0
4 1 1.2869919715994682 1.2463661878173402 5.290676640743887 0 0 0
5 2 2.5157440015781023 0.000731557544340955 3.6252285805514335 -1 0 0
6 2 1.245710064103282 1.228595392739976 2.001506689907667 0 0 0

Velocities

1 -0.019039717051781865 1.5997322624074086 1.7942293006630345
2 -2.660250683300379 3.050471408154963 2.04808153878895
3 1.2701619098857932 -1.9387438273222641 -0.8873866582222205
4 2.892342485214749 -2.3296959830929342 -1.9088616302338786
5 -0.11754841072734717 -1.9689060141289725 -2.651163461428114
6 -1.3509817955094812 1.7470741449980236 1.7383563972503757
