LAMMPS data file via write_data, version 7 Feb 2024, timestep = 21, units = metal

4 atoms
2 atom types

0 3.56 xlo xhi
0 3.56 ylo yhi
0 3.56 zlo zhi

Masses

1 51.9961
2 55.845

Atoms # atomic

1 1 0.005239786683939789 0.041207417731464115 3.4838451810106696 0 0 -1
2 2 3.5597153262869523 1.6981123333203538 1.7742382626524293 -1 0 0
3 2 1.77499593027778 3.510631523608019 1.7809163047182952 0 -1 0
4 2 1.7800489567513276 1.8700487253401616 0.0810002516186078 0 0 0

Velocities

1 -0.045071123065442135 0.9033089198027913 -0.11059250859060797
2 -0.19743357607344036 -0.7605236131873854 -1.0144184071971836
3 -3.022969824985279 -2.962477823648312 0.9407224450063254
4 3.262368171799574 2.8819495803587 0.17666631111964706
