LAMMPS data file via write_data, version 7 Feb 2024, timestep = 28, units = metal

6 atoms
2 atom types

0 2.5173001410241094 xlo xhi
0 4.360091742154058 ylo yhi
0 6.166100874945202 zlo zhi

Masses

1 51.9961
2 55.845

Atoms # atomic

1 1 0.0007125789884998755 4.356874514284667 0.03602693074364561 0 -1 0
2 2 1.2586469675738094 3.626391697615305 4.027528045616514 0 0 0
3 2 1.3023762685819494e-05 2.918577903252033 2.0534295673290544 0 0 0
4 2 1.2579227895811373 2.1409963499058864 0.11131118774414066 0 0 0
5 2 7.702920446002671e-06 1.4656778211806227 4.040656517473285 0 0 0
6 2 1.2586471487095883 0.7518028113006856 2.0632495009837637 0 0 0

Velocities

1 -0.23250766096246706 1.5489270660418608 2.5239098168920155
2 -2.9114064077970254 -1.2574729663630715 -1.650490282327067
3 2.3128658877187744 2.1329599972033177 1.0631851343859153
4 2.588091694050682 -1.8934873442431728 -0.4962218256826798
5 -3.8052966655953693 -1.6562226935180244 -1.2533467579255184
6 2.03222846396013 1.2320497305556697 -0.013085391561025702
