LAMMPS data file via write_data, version 7 Feb 2024, timestep = 122, units = metal

4 atoms
2 atom types

0 2.494153162899183 xlo xhi
0 4.0729350596345135 ylo yhi
0 4.703020306143703 zlo zhi
-4.440892098500626e-16 -0.8313843876330607 -2.220446049250313e-16 xy xz yz

Masses

1 51.9961
2 55.845

Atoms # atomic

1 1 2.2742943014586148 0.1949838662010813 0.34007449208124507 -1 0 0
2 1 1.6499945233254492 2.1868272781703673 1.3305285863166094 0 0 0
3 1 1.0200222204045901 0.04259287602365078 2.1163232329170554 0 0 0
4 2 0.04541652856058476 1.6471866989397945 3.265894081994846 0 0 0

Velocities

1 -1.1062352573807073 -0.6526252072916252 2.2794178530762195
2 1.2751030686782454 1.5215659859131023 -2.5568320500381465
3 1.8961452965531933 -2.754704828081457 -2.0928333501828327
4 -1.9226900896609793 1.755795077305508 2.206887429243328
