LAMMPS data file via write_data, version 7 Feb 2024, timestep = 16, units = metal

5 atoms
2 atom types

0 2.5173001410241094 xlo xhi
0 4.174470026242852 ylo yhi
0 5.366901933484192 zlo zhi
1.2586500705120547 1.2586500705120542 1.1384918253389573 xy xz yz

Masses

1 51.9961
2 55.845

Atoms # atomic

1 1 3.766569670274214 4.181856326456114 0.08031872945910312 -1 -1 0
2 1 2.5509151723161536 3.809346046693762 2.1110674232202737 0 0 0
3 2 3.774843925563768 3.429459074261529 4.23648661788157 0 0 0
4 1 1.2318414936377644 1.8942225722556152 1.1069140271518783 0 0 0
5 2 2.5207789396927844 1.4867355039130585 3.201464369266633 0 0 0

Velocities

1 -0.03966717888108037 1.1363496618396198 2.891411310922906
2 3.150373369948416 1.549975885669126 -0.31371376931537615
3 0.21462457579657893 1.8481428034651752 -2.6748778836205247
4 -3.3966688411693458 -0.9211217591978383 1.1667008262366385
5 0.05162920790776466 -3.491686767963212 -0.8114523513917794
