LAMMPS data file via write_data, version 7 Feb 2024, timestep = 31, units = metal

5 atoms
2 atom types

0 2.5173001410241094 xlo xhi
0 2.5173001410241094 ylo yhi
0 8.899999999999999 zlo zhi
1.854399270268235e-16 -1.2586500705120542 1.2586500705120534 xy xz yz

Masses

1 51.9961
2 55.845

Atoms # atomic

1 1 -0.0014341800237739355 2.513458290466507 0.01859882116616754 0 -1 0
2 1 2.7885379083381068e-05 2.5179593786695262 7.093953126409689 0 -1 0
3 2 1.2586780011385659 1.2635626945831553 5.224620819091799 0 0 0
4 2 0.0014477902091244443 2.5264041599015012 3.582569474138865 0 -1 0
5 2 1.2585806443211123 1.2478160404757443 1.8802577591934824 0 0 0

Velocities

1 -1.7564775805403896 2.556081766250266 1.8634929145601888
2 -1.8289169996119834 -0.3006486240457118 -4.837765897062037
3 1.0732877927460764 0.37626305558601136 1.6576287365829687
4 -0.1983561678093948 -1.792683251121603 1.5488902599847056
5 2.463353541668399 -0.6835659662583434 -0.4372362420602989
