LAMMPS data file via write_data, version 7 Feb 2024, timestep = 11, units = metal

5 atoms
2 atom types

0 2.5173001410241094 xlo xhi
0 3.56 ylo yhi
0 6.293250352560273 zlo zhi
0 -1.2586500705120542 -1.7799999999999994 xy xz yz

Masses

1 51.9961
2 55.845

Atoms # atomic

1 1 -0.021542790884700742 -0.0014875523917774539 0.1504814147949219 0 0 0
2 1 1.2754593058000006 1.791316191626616 1.3310558675165838 0 0 0
3 1 0.002216616056670062 0.006269880909436698 2.3871580534547414 0 0 0
4 2 1.2605440450595808 1.7789205404915842 3.742684121243133 0 0 0
5 2 0.0006229649925557634 -0.01501906063586067 4.9751212481111695 0 0 0

Velocities

1 -1.8771751175621227 0.051998710558545595 1.4030302865393904
2 3.0163167131045596 -1.375417297762576 3.301127495343516
3 0.34051077087950976 0.36683130155168087 -0.1302951815843348
4 0.7565052275513943 -0.36667303441739746 -4.5730848352454405
5 -2.1341782942487217 1.257331252046696 0.31445797247554924
