LAMMPS data file via write_data, version 7 Feb 2024, timestep = 30, units = metal

6 atoms
2 atom types

0 4.360091742154058 xlo xhi
0 3.775950211536164 ylo yhi
0 4.110733916630135 zlo zhi
2.180045871077028 1.4533639140513523 0 xy xz yz

Masses

1 51.9961
2 55.845

Atoms # atomic

1 1 6.472739542438934 3.696423714087943 0.4493266670140138 -1 -1 0
2 1 2.933440461888261 2.5369474387193534 2.0826531096587537 0 0 0
3 1 3.6603954100647824 1.1738685178413895 3.979821762629824 0 0 -1
4 1 2.944367603593217 0.26514765020517994 2.139135473656887 0 0 0
5 1 5.800239513604482 2.3009785875242232 3.8277117619591996 0 0 -1
6 2 5.077715549202088 1.3552023273755052 1.9065327951058593 0 0 0

Velocities

1 0.05383937456890489 -0.3431477515338944 2.426589369748848
2 -1.7168039586751185 -4.375075348254081 -0.5186270620326485
3 1.7299210242373522 2.5790041624401727 -2.183893153403837
4 1.5419492755292514 0.917193946328092 -1.8019469542811497
5 0.8068031269356287 2.3696552688245918 -1.2024796241057756
6 -2.2492154812518024 -1.068534312611156 3.0542715132585463
