LAMMPS data file via write_data, version 7 Feb 2024, timestep = 55, units = metal

5 atoms
2 atom types

0 2.5173001410241094 xlo xhi
0 2.180045871077029 ylo yhi
0 10.276834791575336 zlo zhi
1.2586500705120545 -1.2586500705120542 0.7266819570256775 xy xz yz

Masses

1 51.9961
2 55.845

Atoms # atomic

1 1 1.2505293251884098 2.237557141948683 1.8953171910354647 0 -1 0
2 1 2.518921661004723 1.2925100649276888 3.172423409093557 0 0 0
3 1 1.2623538910703236 0.7588361234973768 3.3400103992187815 0 0 0
4 1 1.261610018902722 2.2507020663957897 4.230148146528919 1 0 0
5 2 -0.0001645436059063421 1.453896130512902 7.915770437273953 1 0 0

Velocities

1 -0.2701482539917423 1.044706192921226 2.730615222292973
2 -0.08265563544644117 2.0902007541063297 -2.848353739331476
3 0.5850062057764479 -1.6744897058915047 0.4619564059536225
4 3.394272303154628 -1.5098622680934763 1.7368491269398434
5 -3.3765339235851797 0.04603722027363241 -1.9376375443297742
