LAMMPS data file via write_data, version 7 Feb 2024, timestep = 1108, units = metal

2 atoms
1 atom types

0 4.988306325798366 xlo xhi
0 2.3515101530718505 ylo yhi
0 2.036467529817257 zlo zhi
-0.8313843876330616 -0.8313843876330616 -1.1757550765359253 xy xz yz

Masses

1 51.9961

Atoms # atomic

1 1 4.4956612860428375 -0.4158242596689893 1.0340144739851038 -1 0 0
2 1 1.3240294273885866 1.591579336204895 1.0024530558321565 0 -1 -1

Velocities

1 -5.615893819721497 -1.913455565950612 9.393472756275889
2 5.6158938197215 1.9134555659506118 -9.393472756275882
