LAMMPS data file via write_data, version 7 Feb 2024, timestep = 194, units = metal

6 atoms
2 atom types

0 2.5173001410241094 xlo xhi
0 2.1800458710770285 ylo yhi
0 12.332201749890405 zlo zhi
-1.2586500705120545 0 -2.220446049250313e-15 xy xz yz

Masses

1 51.9961
2 55.845

Atoms # atomic

1 1 2.5108536935845276 0.008677670976211813 0.036899883178947476 -1 0 0
2 2 -0.004616571007800663 1.4474347582404585 10.201618792985455 0 0 0
3 2 1.2434934669885427 0.7180503805288274 8.128333232940374 0 0 0
4 2 0.005561224424513823 0.04086537561213038 6.201624349329015 0 0 0
5 2 0.016481083915026562 1.4290026027526372 4.180515140835354 0 0 0
6 2 1.26237018825448 0.7165808505872117 2.0838149425732233 0 0 0

Velocities

1 -0.6581243119578356 0.7513374491873822 3.4000847100417793
2 -0.4644667463105959 -0.5965814203354343 0.04677799347278647
3 -1.5599312735990247 -0.9369749288390392 -2.2707224414590517
4 0.34169928260456695 3.1580592046025444 1.7982829075182518
5 1.9538635838352607 -1.312385591379217 -0.4086630217266633
6 0.3416008001165984 -1.0116716940191666 -2.3314224982727474
