LAMMPS data file via write_data, version 7 Feb 2024, timestep = 42, units = metal

6 atoms
2 atom types

0 2.5173001410241094 xlo xhi
0 2.1800458710770285 ylo yhi
0 12.332201749890405 zlo zhi
-1.2586500705120545 0 -2.220446049250313e-15 xy xz yz

Masses

1 51.9961
2 55.845

Atoms # atomic

1 1 -0.00627619730464463 0.013277729337340761 0.042408966733778246 0 0 0
2 1 -0.004796507802596883 1.4470491609166405 10.20335909595187 0 0 0
3 1 1.2427498867525357 0.7170299882724772 8.233389001505572 0 0 0
4 2 0.008696751155133867 0.054356016869182594 6.090343886699729 0 0 0
5 2 0.009851106521566066 1.4187013830862034 4.135523212224532 0 0 0
6 2 1.265160092847627 0.7090557623335387 2.1294809790039944 0 0 0

Velocities

1 -0.6793893010892614 0.774226238006679 3.406889713452067
2 -0.47874107679546635 -0.6280327596742128 1.6700915317937783
3 -1.615728989655245 -1.026952282280296 0.29599784368263055
4 0.316129540370897 3.1299925444647863 0.4554828985927589
5 1.9195645282086893 -1.247638007367293 -2.3689502195062784
6 0.34698780196469087 -1.0622986172129598 -3.0892000263124424
