LAMMPS data file via write_data, version 7 Feb 2024, timestep = 307, units = metal

6 atoms
2 atom types

0 2.5173001410241094 xlo xhi
0 2.1800458710770285 ylo yhi
0 12.332201749890405 zlo zhi
-1.2586500705120545 0 -2.220446049250313e-15 xy xz yz

Masses

1 51.9961
2 55.845

Atoms # atomic

1 1 0.0005316992156623628 0.001291876174547596 0.008618530593541441 0 0 0
2 1 -3.261554256228649e-05 1.4533248411046478 10.24809976518411 0 0 0
3 2 1.2586530675181087 0.7307978878444585 8.072561949471023 0 0 0
4 2 0.0007032727976817531 0.006228009018465325 6.102040191925911 0 0 0
5 2 0.0013696281355554119 1.4319365487935147 4.2347993658904235 0 0 0
6 2 1.2560750888996637 0.7365125792184182 2.1643845716608214 0 0 0

Velocities

1 -0.6754481252402389 0.7543613042111634 3.3004194523770303
2 -0.46461402784493927 -0.6210302780570895 2.767577295966666
3 -1.5683311214231923 -1.0019032781653552 0.16679704572057483
4 0.31856085174610566 3.0537916461999575 1.44885105892653
5 1.9090464135452847 -1.0157020118320856 -3.0782959064111113
6 0.40221164766250717 -1.1603280585753313 -4.187135808703424
