LAMMPS data file via write_data, version 7 Feb 2024, timestep = 113, units = metal

6 atoms
2 atom types

0 4.360091742154058 xlo xhi
0 3.775950211536164 ylo yhi
0 4.110733916630135 zlo zhi
2.180045871077028 1.4533639140513523 0 xy xz yz

Masses

1 51.9961
2 55.845

Atoms # atomic

1 1 6.575979891177731 3.772801744061657 0.24335515614878334 -1 -1 0
2 1 2.7099578903100765 2.101627927458898 2.002810280612995 0 0 0
3 1 3.7874685374820762 1.5639794987826943 4.019958523447085 0 0 -1
4 2 3.025166818198756 0.00677748572208047 1.843828098221273 0 0 0
5 1 5.884406856287585 2.7938237293251573 4.043167038130472 0 0 -1
6 2 4.908514181998094 1.0994849439177474 2.2366540837025335 0 0 0

Velocities

1 1.5338913342973677 0.3858024787683201 1.2453452621544747
2 -2.4235151136742434 -2.770955260007728 -0.5686043818675349
3 0.4647553666117505 4.000916824756704 2.1162632078824717
4 0.19787412672022692 -2.077203914346639 -1.8641451801082876
5 0.6434825905567126 3.3021067271554356 0.37821641770537784
6 -0.40142117032071767 -2.501721690075888 -1.088511253690914
