LAMMPS data file via write_data, version 7 Feb 2024, timestep = 13, units = metal

6 atoms
2 atom types

0 2.88 xlo xhi
0 4.553679830642467 ylo yhi
0 5.464415796770961 zlo zhi
-1.4399999999999995 2.2204460492503127e-15 -1.8214719322569868 xy xz yz

Masses

1 51.9961
2 55.845

Atoms # atomic

1 1 2.8757432390861837 -0.00739918247640535 0.02476730346679688 -1 0 0
2 1 1.4396877115672422 -0.0029365641753131833 4.546380363518787 0 0 0
3 1 0.0016151673791947895 1.8252830474889892 3.625465802037768 0 0 0
4 1 -1.4381786106015375 3.643803920099318 2.7253516533974826 0 -1 0
5 1 1.4403959234478774 0.9134954152464069 1.8234195608776247 0 0 0
6 2 0.0007365691210491744 2.735113025101931 0.9156548086289441 0 0 0

Velocities

1 2.102962748448873 0.9190312165877139 0.7567065912319804
2 -1.0355898425725651 -1.0396364199260673 -1.299001680953488
3 -0.9157403073783437 4.05545890962536 -2.20520315626468
4 -1.2358736512827861 -3.119913431625177 0.4632927737339443
5 2.365978649290231 2.6916119133856093 0.696396560320193
6 -1.1933988045779385 -3.264876680543172 1.4783753418517345
