LAMMPS data file via write_data, version 7 Feb 2024, timestep = 249, units = metal

6 atoms
2 atom types

0 4.072935059634514 xlo xhi
0 4.319999999999999 ylo yhi
0 4.072935059634515 zlo zhi
2.0364675298172568 -2.0364675298172568 1.4400000000000024 xy xz yz

Masses

1 51.9961
2 55.845

Atoms # atomic

1 1 -0.003223092685017158 0.038373424127482014 0.08869003375558578 0 0 0
2 2 4.068659910049602 2.4423230957952193 0.7593987893883674 0 0 0
3 2 2.022833327743194 0.5238660220859511 1.3980991363323554 0 0 0
4 2 2.0626695352484603 2.8911526424644904 1.9634787143213777 0 0 0
5 2 0.03112761324776936 0.9224767061458138 2.6090028215486063 1 0 0
6 2 -0.03638206030224023 3.2619594183100986 3.364905309463869 1 0 0

Velocities

1 -0.26929114171797364 0.26671107570520003 1.8954004146991308
2 -0.701360044830664 -3.080398400116228 -2.7705556458698775
3 -1.2663080236833788 1.1245499451889702 -0.027195007457162954
4 2.5585926989140666 1.1157182129593168 -1.8500982123915604
5 3.0969812073874783 1.6296806117508797 0.9457555675787548
6 -3.4371745434212757 -1.0378794191781426 1.9373260046894483
