LAMMPS data file via write_data, version 7 Feb 2024, timestep = 272, units = metal

3 atoms
2 atom types

0 2.5173001410241094 xlo xhi
0 2.517300141024109 ylo yhi
0 5.339999999999999 zlo zhi
-2.586492828232391e-16 -1.2586500705120542 1.2586500705120542 xy xz yz

Masses

1 51.9961
2 55.845

Atoms # atomic

1 1 0.026611186787117908 2.539776207155374 0.1611106474821193 0 -1 0
2 1 -0.014005300666807607 2.479809774167529 3.4598801979932534 0 -1 0
3 2 1.246984566534005 1.2726541707049368 1.719706218031335 0 0 0

Velocities

1 2.8587903044667686 -0.437021202939618 3.792126352467208
2 -1.5173649030715726 -1.1120063440146628 -2.5673792464916763
3 -1.2489728590470905 1.442266832020584 -1.140336162539427
