LAMMPS data file via write_data, version 7 Feb 2024, timestep = 208, units = metal

5 atoms
2 atom types

0 2.494153162899183 xlo xhi
0 4.0729350596345135 ylo yhi
0 5.8787753826796285 zlo zhi
-4.440892098500626e-16 -0.831384387633062 2.0364675298172563 xy xz yz

Masses

1 51.9961
2 55.845

Atoms # atomic

1 1 0.060336783892691224 3.963468980280655 0.2872501358741929 0 -1 0
2 1 0.8508809606424323 1.9046872125029666 1.1222057077768308 0 0 0
3 2 1.5240283490539652 4.193749253589714 2.189543318651738 0 -1 0
4 2 -0.13124183874611922 1.9155824228906853 3.387719882742962 0 0 0
5 2 1.0268386165011942 4.29624172838241 4.7878032618784765 0 -1 0

Velocities

1 0.8443560130829764 -2.092652235684587 3.232449068819992
2 -1.1588611524656767 2.054607896983215 -2.145001373595258
3 -0.43502145302646833 -1.841807022337327 0.8534894072509855
4 -1.2020934004840595 -0.16362559067340265 -1.8009678733257353
5 1.9299439461393526 2.0408548932426354 -0.06502111500994294
