LAMMPS data file via write_data, version 7 Feb 2024, timestep = 20, units = metal

3 atoms
2 atom types

0 2.494153162899183 xlo xhi
0 4.072935059634514 ylo yhi
0 3.5272652296077767 zlo zhi
1.1080211072272329e-16 -4.440892098500626e-16 -2.0364675298172563 xy xz yz

Masses

1 51.9961
2 55.845

Atoms # atomic

1 1 2.477050595976475 0.2993004992013557 0.5145109133068487 -1 0 0
2 2 1.6771197475881234 2.345219382742665 0.6604837728629972 0 0 0
3 2 0.8341359822337681 -0.6080523521267649 2.3522705434379247 0 0 0

Velocities

1 0.364733772490111 -0.20131468941697975 1.3939572745985889
2 1.2482590814362065 1.67756253297901 2.0779707941127694
3 -1.5878549934744024 -1.4901226776223224 -3.375854970775956
