LAMMPS data file via write_data, version 7 Feb 2024, timestep = 428, units = metal

6 atoms
2 atom types

0 2.88 xlo xhi
0 2.8799999999999994 ylo yhi
0 8.64 zlo zhi

Masses

1 51.9961
2 55.845

Atoms # atomic

1 1 0.0030930828565374213 0.003538303974470064 0.0933139338677823 0 0 0
2 1 1.4578032140945798 1.3980523814961645 1.591219571969353 0 0 0
3 1 2.8652601034166345 0.0456047670001218 2.865771269141931 -1 0 0
4 2 1.4468607464527452 1.4403209595784818 4.390731524804898 0 0 0
5 2 0.017894498008937502 2.8704652048983212 5.667676270640629 0 -1 0
6 2 1.4094924292374373 1.4438058447094537 6.993007859437118 0 0 0

Velocities

1 -0.4610379246183248 1.171333283592366 1.2722719631160642
2 2.8063410942174407 -0.7621952155866822 1.8067824069977996
3 -1.7589843953220887 2.147447881008622 -0.27706696971823236
4 0.7081624867580609 -1.7698110233016053 -4.437035634736752
5 1.8842025135477325 -1.1344861714031305 2.1955906025590037
6 -3.1382740274198717 0.5239140151265697 -0.3674262556673819
