LAMMPS data file via write_data, version 7 Feb 2024, timestep = 326, units = metal

6 atoms
2 atom types

0 2.494153162899183 xlo xhi
0 4.0729350596345135 ylo yhi
0 7.054530459215555 zlo zhi

Masses

1 51.9961
2 55.845

Atoms # atomic

1 1 0.005924519451753251 4.045482984668564 0.07156505076887226 0 -1 0
2 1 0.8023415856941223 2.0374348105658227 1.222194937408774 0 0 0
3 2 1.6698405397738207 0.014593458279207445 2.5030002572362897 0 0 0
4 2 0.001212380288457826 2.0490534029282377 3.555918733378422 0 0 0
5 2 0.8381253117808948 0.005266500032679827 4.545070280769029 0 0 0
6 2 1.6708619888093077 2.0305064926117793 5.738576888477593 0 0 0

Velocities

1 0.816923162102731 2.1544008004705506 1.576950286581184
2 0.22510737438543157 -2.057743403088876 2.4189430808008283
3 -2.6547647180643463 2.824862960601795 -4.522525830484803
4 -1.7162933173300536 -0.4158391963199902 -0.03292494739338544
5 2.75080879818632 -0.907209580954153 0.3595713659403523
6 0.6500366133690222 -1.591809844532724 0.47538749467161945
