# LAMMPS data file written by OVITO Pro 3.10.6

2 atoms
1 atom types

0.0000 3.1804 xlo xhi
0.0000 3.1804 ylo yhi
0.0000 3.1804 zlo zhi

Masses

1 183.83

Atoms  # atomic

1 1 0.000 0.000 0.000
2 1 1.5902 1.5902 1.5902
