(written by ASE)

54 atoms
1 atom types

0.0      9.5411999999999999  xlo xhi
0.0      9.5411999999999999  ylo yhi
0.0      9.5411999999999999  zlo zhi

Masses

     1      183.82999999999998 # W

Atoms # atomic

     1   1     -3.1804000000000001     -3.1804000000000001     -3.1804000000000001
     2   1     -1.5902000000000001     -1.5902000000000001     -1.5902000000000001
     3   1     -3.1804000000000001     -3.1804000000000001                       0
     4   1     -1.5902000000000001     -1.5902000000000001      1.5902000000000001
     5   1     -3.1804000000000001     -3.1804000000000001      3.1804000000000001
     6   1     -1.5902000000000001     -1.5902000000000001                  4.7706
     7   1     -3.1804000000000001                       0     -3.1804000000000001
     8   1     -1.5902000000000001      1.5902000000000001     -1.5902000000000001
     9   1     -3.1804000000000001                       0                       0
    10   1     -1.5902000000000001      1.5902000000000001      1.5902000000000001
    11   1     -3.1804000000000001                       0      3.1804000000000001
    12   1     -1.5902000000000001      1.5902000000000001                  4.7706
    13   1     -3.1804000000000001      3.1804000000000001     -3.1804000000000001
    14   1     -1.5902000000000001                  4.7706     -1.5902000000000001
    15   1     -3.1804000000000001      3.1804000000000001                       0
    16   1     -1.5902000000000001                  4.7706      1.5902000000000001
    17   1     -3.1804000000000001      3.1804000000000001      3.1804000000000001
    18   1     -1.5902000000000001                  4.7706                  4.7706
    19   1                       0     -3.1804000000000001     -3.1804000000000001
    20   1      1.5902000000000001     -1.5902000000000001     -1.5902000000000001
    21   1                       0     -3.1804000000000001                       0
    22   1      1.5902000000000001     -1.5902000000000001      1.5902000000000001
    23   1                       0     -3.1804000000000001      3.1804000000000001
    24   1      1.5902000000000001     -1.5902000000000001                  4.7706
    25   1                       0                       0     -3.1804000000000001
    26   1      1.5902000000000001      1.5902000000000001     -1.5902000000000001
    27   1                       0                       0                       0
    28   1      1.5902000000000001      1.5902000000000001      1.5902000000000001
    29   1                       0                       0      3.1804000000000001
    30   1      1.5902000000000001      1.5902000000000001                  4.7706
    31   1                       0      3.1804000000000001     -3.1804000000000001
    32   1      1.5902000000000001                  4.7706     -1.5902000000000001
    33   1                       0      3.1804000000000001                       0
    34   1      1.5902000000000001                  4.7706      1.5902000000000001
    35   1                       0      3.1804000000000001      3.1804000000000001
    36   1      1.5902000000000001                  4.7706                  4.7706
    37   1      3.1804000000000001     -3.1804000000000001     -3.1804000000000001
    38   1                  4.7706     -1.5902000000000001     -1.5902000000000001
    39   1      3.1804000000000001     -3.1804000000000001                       0
    40   1                  4.7706     -1.5902000000000001      1.5902000000000001
    41   1      3.1804000000000001     -3.1804000000000001      3.1804000000000001
    42   1                  4.7706     -1.5902000000000001                  4.7706
    43   1      3.1804000000000001                       0     -3.1804000000000001
    44   1                  4.7706      1.5902000000000001     -1.5902000000000001
    45   1      3.1804000000000001                       0                       0
    46   1                  4.7706      1.5902000000000001      1.5902000000000001
    47   1      3.1804000000000001                       0      3.1804000000000001
    48   1                  4.7706      1.5902000000000001                  4.7706
    49   1      3.1804000000000001      3.1804000000000001     -3.1804000000000001
    50   1                  4.7706                  4.7706     -1.5902000000000001
    51   1      3.1804000000000001      3.1804000000000001                       0
    52   1                  4.7706                  4.7706      1.5902000000000001
    53   1      3.1804000000000001      3.1804000000000001      3.1804000000000001
    54   1                  4.7706                  4.7706                  4.7706
