LAMMPS data file via write_data, version 7 Feb 2024, timestep = 1008, units = metal

58 atoms
1 atom types

0 2.62714874100737 xlo xhi
0 5.25429748201474 ylo yhi
0 76.18731348921374 zlo zhi
0 57.79727230216215 52.5429748201474 xy xz yz

Masses

1 180.94788

Atoms # atomic

25 1 3.4134314466443083 6.188652549809159 3.8569135700766393 0 0 0
26 1 2.520571244348823 3.0482390926595686 1.8299373517206872 1 0 0
33 1 2.2547150955983675 5.656148558560482 1.09304200639074 1 -1 0
47 1 5.785053856888757 3.569680690146043 4.347802730868825 0 1 0
15 1 7.049313575054074 4.632761559509868 6.529642739412989 1 1 0
6 1 7.153548877604933 7.245979238880707 6.120878942658841 1 0 0
12 1 8.3456599528723 6.030547918187864 8.468499500841 0 0 0
21 1 7.75822824216048 8.699392173503519 9.218299505520067 0 1 0
23 1 9.737933357660777 11.952716577691733 10.94453428983457 2 0 0
51 1 10.410233014967902 9.65957653357373 12.122043432341478 0 0 0
7 1 10.966996170969486 12.53315519775773 13.33964520441563 1 1 0
2 1 13.117337584524897 14.799326724682174 16.62652027244128 2 0 0
52 1 16.011137993708047 14.579727955874855 19.253771275449566 -2 0 0
50 1 14.621072243197535 17.160798684003822 19.08194897470344 2 0 0
29 1 16.746794873509796 15.984438097559 21.5559310794194 2 1 0
42 1 18.828430492379212 18.609962605680607 21.68634780594262 0 1 0
40 1 20.04412211727083 19.828024137241712 24.03096077387157 1 0 0
35 1 22.38692986911083 18.147376711512454 26.074458099964303 1 1 0
56 1 18.159881894293818 17.12110521522032 23.819241444120763 1 0 0
55 1 20.820335872140173 20.805460196354005 26.880097557522877 1 1 0
37 1 22.176813416847825 22.68488525135451 28.655159505650072 3 0 0
32 1 26.135926973923645 22.983902974270567 30.993911713025813 1 0 0
38 1 24.152986264226467 25.453682071049425 29.85557704286108 0 0 0
13 1 25.776059160767737 25.402354360952625 32.345451881215915 1 1 0
18 1 27.348213806192888 27.77394483818907 33.383448189503554 2 1 0
1 1 30.363080019952392 26.529428972542927 37.58355299451626 0 1 0
11 1 28.4109947689632 28.287225595256178 35.75945729042071 2 1 0
8 1 30.63673507817039 27.981749382911822 39.8133010428131 2 1 0
9 1 28.755876832558574 25.64754766731859 35.211173906586055 1 1 0
24 1 29.40658421820963 29.439714538425967 37.91551478552354 1 0 0
30 1 32.39877965296013 30.441125294471746 41.22805771741085 2 1 0
17 1 33.310300426856436 32.7925051234143 42.324556634521294 1 1 0
27 1 34.93642943189777 34.77280068251821 43.889221896614394 0 0 0
39 1 34.609171282698966 32.105232502929624 44.44045695896376 1 1 0
54 1 36.647304636160776 34.18201279255942 46.34754640927657 0 0 0
34 1 35.8522990199889 36.918269499014464 46.70883369629398 3 0 0
46 1 39.45563157316977 35.62460240011014 48.79966373803233 0 1 0
22 1 37.46172551385792 38.284135711359205 48.752342030572976 1 0 0
44 1 41.24073581905876 37.32063636297439 51.016741017298145 -1 0 0
5 1 42.62376990072717 36.973062764105165 53.313386096905376 0 1 0
43 1 40.748033615327124 39.66413473419584 53.41168979714869 2 1 0
57 1 40.74697520318657 39.93362683833365 50.83629545954534 2 1 0
14 1 43.94973161873618 43.3019080116453 55.42932414154194 0 0 0
20 1 44.52541608005542 40.55495314115702 55.64766956961807 2 1 0
48 1 45.7434920387657 42.00687846237614 57.50276506165521 1 0 0
31 1 47.31098846414651 42.90650815083574 59.86076983594354 1 2 0
28 1 45.37407011352614 44.695486456181975 58.194935928994184 2 1 0
45 1 47.46263281568867 46.1528999678824 61.757117391028295 1 0 0
3 1 48.89443407189495 47.65547292365878 63.736001930439656 0 0 0
4 1 50.17710702093022 44.777112049304854 64.1372277663775 2 1 0
19 1 54.21241636989697 52.12255101246152 68.28451125952269 1 1 0
49 1 52.192362076732785 49.360743159720506 66.60651818182062 2 0 0
58 1 50.31306630930219 46.69392444213405 65.95856162575352 1 1 0
36 1 54.01161664896573 49.3988600470101 69.28373087881278 2 1 0
10 1 55.44455994890823 52.62945295408197 70.73063191174062 1 0 0
16 1 57.104719115965 51.09373997914549 72.8891114722574 0 1 -1
41 1 58.56950950461809 53.68067841281659 74.27243786325556 0 1 0
53 1 58.44912509331975 56.29921840913386 75.50190582985692 1 0 0

Velocities

25 -4.992377359802214 3.8292384758308966 4.666371930280855
26 1.7178563211380735 -0.6871253812653346 -4.659702072514723
33 2.5965296898360357 -4.107941403622053 -3.24214186263131
47 -2.0786604943294553 4.582365015834331 -1.6079818952391691
15 0.889694684208026 -4.054478838579991 1.4671141159285324
6 4.552612424975571 -1.6048111609351936 2.0674024282141996
12 1.8830454052521193 -2.881900858095839 -4.519161676532657
21 -6.065954927960335 4.69782529561922 2.273256211632152
23 0.13278493393662993 -4.020184444736606 2.539535204288642
51 0.3545723005590777 0.6257704932003434 4.69483711501407
7 0.5476107792087511 3.9261826574787206 -3.522098570855249
2 1.627314751128538 -3.6428644873521336 -4.081283083785598
52 -6.863159930920784 1.0730762960343116 -2.9478805114321194
50 2.888142522307673 4.894151200685745 -0.4133182645508959
29 1.5038957440314038 1.4873141736092452 -1.500060875123399
42 0.8509801495818975 1.9727265689418505 -1.4007966939984962
40 0.28946845260228754 -2.528291176600718 -0.6703379522772692
35 5.004801499287724 4.646483224191214 -1.9856817649273835
56 -2.5472702927095825 -4.1633310347511685 1.736501873932856
55 -3.128299720633491 -5.491934704375531 -2.600669951254019
37 4.0273962299701624 -4.2005516424978895 1.4330061527483897
32 2.7552161658460204 5.8044705761868824 -0.7566441147556241
38 -4.032902339896727 -3.7041894628138694 -3.778959283495172
13 -4.8010849755781315 4.02390251746485 -2.112332476071514
18 5.490889012206551 1.8739127028354674 -2.5913336628977364
1 -4.545847233077516 2.25869774594456 4.603164478100194
11 -1.0891521420544301 2.857660602997491 -0.6552069276316654
8 1.751113005903591 -5.06299792225629 3.62810797743264
9 1.1724893716667357 -5.236861247216636 1.3760333817803974
24 -1.5038925045769713 -1.8611211869220128 -7.9352136322950795
30 5.902460444699306 3.170596787009472 -0.7887778774572313
17 0.8944265344963804 -1.2103711741904941 0.7077540697365567
27 -2.1829821434093333 1.6952624140053534 2.2064448340087894
39 -2.012811939393414 3.990219549495175 -0.541385027600283
54 -0.001802793440317025 -1.869776317822931 3.019335258364405
34 2.983311403576351 -1.610117273569368 -3.363074030101864
46 -2.9495317203913554 3.501664787279569 3.407911676423659
22 -0.9101395788959065 -1.3669290264125433 3.566698184336422
44 0.4528210351260239 -2.6448902092958746 1.9197653481662302
5 -0.590263859924305 -0.5622391565457506 5.349411279226626
43 -1.3657306330904162 0.06790127743959617 -3.328050675800376
57 0.37864358000367465 4.390983404361289 0.2826349980313826
14 -0.9398893158044404 4.985541466497406 -1.1254040943076942
20 3.5705153647687498 -0.1373838039141345 3.8023850952105165
48 1.051590361869017 -4.675349628838458 -0.6031054295962289
31 -0.7139521056286924 3.5334461567014324 7.911374471450291
28 0.17170448260738413 1.0322438722179723 -2.442175365217807
45 2.9592100080403387 -1.593658379665639 3.6926987118066683
3 -4.3182324908362 -4.617480443424187 -3.604663350788977
4 4.752307980817452 3.0823375189280826 -4.752159342025653
19 -4.3122480841140005 -0.10718557875984802 -0.7837854453089175
49 2.9563934934193004 -0.5623304581488684 6.065447092174257
58 -0.2173001780068377 -1.5555318182236695 -7.341291901933313
36 -0.4996169682362788 -4.0537036552054015 1.3664042418495805
10 2.826334692685269 3.7052937748528256 2.6312270722029316
16 -5.240515919590725 2.288613501715237 0.1961123145289465
41 -1.5331284509784873 -3.9171275004070942 6.8497619784250805
53 0.5006152775241803 -0.26522268091304785 -3.8060196828878636
