LAMMPS data file via write_data, version 7 Feb 2024, timestep = 1023, units = metal

54 atoms
1 atom types

0 7.8814462230221105 xlo xhi
0 5.25429748201474 ylo yhi
0 23.644338669066332 zlo zhi
2.62714874100737 5.254297482014741 7.881446223022111 xy xz yz

Masses

1 180.94788

Atoms # atomic

1 1 4.031658142182746 4.939045026968417 4.518108467257737 1 1 0
16 1 3.9413315409412863 2.7237945472015257 5.9992442026376995 1 1 0
35 1 9.000037157564 6.028419746250203 2.9382489409709427 0 -1 0
36 1 7.899033290641013 5.777859407418392 7.929067124770749 1 0 0
43 1 6.588832012251792 5.666819551029954 4.6375483913270115 1 0 0
50 1 5.484682401488023 4.921597310064366 2.26613880120801 0 0 0
6 1 2.7834679827196953 4.195185589670986 1.962682189810397 0 1 0
45 1 1.5407227459733357 1.9113301899371953 3.041808968289016 1 0 0
8 1 5.27020387755068 5.506480777145222 7.278701144993061 1 1 0
12 1 7.033169187361997 3.692428649122383 6.423935845981177 0 1 0
54 1 7.08179476476362 3.2079631760441334 3.7325255412649283 0 0 0
32 1 5.842673701830388 2.567454590308037 0.979511303790603 0 1 1
42 1 3.2578482873913814 1.8209340331552868 0.7127611008079807 1 1 1
53 1 4.457519691521358 2.6213639834459492 3.2937675723798616 0 1 1
29 1 8.937743195892233 6.5398435680111815 5.56275641114382 0 -1 0
34 1 7.957012174778796 4.187863326859763 1.3345591958327887 -1 0 0
9 1 9.441184051754421 4.071443906779784 4.651171767774103 0 0 0
22 1 11.54332625047206 7.118088802490368 5.946833245475108 0 0 0
33 1 8.469508756723826 1.2375709162366206 0.5973750655966897 0 2 1
4 1 6.008603942019709 8.294954062922 11.77903270194022 0 1 0
25 1 3.786393279578329 5.038520516029548 9.461372215179548 0 1 0
27 1 4.928081078182695 5.451765176360825 11.904001160215419 0 1 0
11 1 7.504726344710676 5.7826693092802 12.701664326064055 0 0 0
31 1 5.69619561248326 7.168359915501635 9.35843106231529 0 0 0
41 1 7.874521352542996 8.283241709915831 13.750140819812469 0 1 0
13 1 13.106861524770022 8.709701441585384 16.17977347115766 0 1 0
19 1 5.880860769598704 6.58028436186324 14.665497395798347 1 1 0
28 1 5.393134215180231 3.1270961234155332 8.54510270025104 0 1 0
21 1 8.596296262952661 7.761271875982154 11.190024025368594 1 0 0
3 1 3.667152510280705 5.066327692381248 14.312951218737746 1 1 0
5 1 9.952530194617685 4.136458176132356 7.3526816247909705 0 1 0
17 1 10.417951820566678 8.574905793730851 15.610082464395866 0 1 0
20 1 11.941857246112319 9.109453728193941 13.443759154580944 0 0 0
30 1 11.380792233303671 7.602040910980239 10.923119245395302 0 0 0
37 1 9.769892559175524 5.340644575550102 11.291104799772224 0 0 0
38 1 10.187225990508383 7.098228918830143 13.269120996403512 0 0 0
44 1 10.43220551795013 7.189678036281348 8.397598162915521 0 0 0
49 1 7.352804919711761 4.604639406777725 10.306100626046524 0 1 0
46 1 8.556208441789757 6.0566004067130566 15.200807965745586 0 1 0
10 1 14.899077200691238 11.540954272390163 22.90796181042116 0 0 0
51 1 5.492820896566583 6.670920441344531 17.99088567552348 1 1 0
2 1 8.109591714592371 7.61811865745936 18.298323306716913 0 1 0
7 1 6.9377589605561765 9.001312704378762 21.786804715180494 1 1 0
39 1 6.8593839204670095 9.850449744713934 19.22677721773789 1 1 0
14 1 11.547226687093282 12.633850850436154 22.92286573028427 1 0 0
47 1 9.30701553749718 8.650075100343795 20.504211063304552 0 2 0
52 1 10.851540171583425 8.287615631725481 18.276718370511652 1 1 0
15 1 7.922186642215872 9.372074816690263 16.245702611102267 0 1 0
18 1 13.292962268986297 11.577590313855517 20.704832395269555 0 0 0
23 1 13.014144861823272 11.045635475909329 17.46432713226178 0 0 0
24 1 12.813297372654901 8.146971024651865 20.160673552322343 0 1 0
26 1 11.003524719699374 10.591013903782262 19.673435438722937 0 0 0
40 1 9.409570872786915 11.49550056917484 21.6186139845471 1 0 0
48 1 11.658827880889714 9.614489705398139 22.12461354200115 1 0 0

Velocities

1 1.0326180414797392 -0.8343495081142982 -1.1125052836590423
16 1.2803124540821755 6.3707039678759605 5.7417107192177435
35 -1.5251549779709315 -3.287746262162214 2.191283095737084
36 -0.7119177129223618 -3.1567470602281955 0.2889926606654236
43 2.507666879443976 -4.848213348345954 2.6822968079082643
50 0.6674433209295397 -1.9150011254284085 -1.5942032834383124
6 -5.737714904559494 3.0070469176174077 -2.723242303364876
45 1.26965088252928 4.3355488034353975 0.2071571826282488
8 5.818135525501685 -0.9008797115350395 1.7096728828778716
12 -0.8811418452306412 -9.387214104254888 -6.309253615934493
54 0.07528747171245424 3.9537902933030034 -2.5189689754373545
32 -3.1429815036750752 2.0111411168063937 -0.5366575304093715
42 -2.0592487601050404 -2.7851478130026877 0.6889007208017779
53 -8.21468084094242 10.44177929927988 1.2676053429835343
29 3.5577017432009828 -4.944215968604551 4.275548790158885
34 -1.5753661533357965 -2.1455197117077347 -2.660913179451604
9 3.2465075636950687 -6.937191383014991 1.259848284541133
22 3.354947175957434 -1.8556072918681654 0.7868834439420406
33 1.3756802366924998 2.5964798172844348 -1.600554692760484
4 0.44070521363470094 -3.3489942007894866 2.8854922923697477
25 3.4710677688115097 -1.0109948357302698 -4.877041474152353
27 1.1607668869825927 1.1712438044547353 -2.8504021860860176
11 0.6509084322346367 3.0480772291167906 -3.816717220028569
31 -2.2982198920469066 -1.6159865560729623 -4.791717426816415
41 -2.888211628954272 -4.273761340416562 -7.579540119037757
13 -3.706583209637028 0.3793887382647093 -4.051978105144278
19 0.2969868145156305 -0.005294460065717516 -1.0225288045947836
28 -0.02986299068369437 6.378232391212322 1.3771521855898432
21 -2.2362624289521023 1.2251074264963826 1.3077562253477288
3 -7.663297600194739 2.5521498981525945 -0.31479294799414437
5 1.061721613210046 4.300499900047716 -2.7865836199605263
17 1.4561426842028522 2.710008845970984 4.478335086366018
20 0.7203755700298041 -6.0574959905213355 0.4134347682377836
30 4.631257621448863 3.3735413123843268 3.20416541562311
37 -5.788386618578082 -2.06806642749918 -1.466802764411185
38 0.3610643139067299 -0.42042252128792484 0.4936877040737405
44 0.7039081556589323 -0.10366953783739467 -6.379100784819968
49 -2.542824599928875 -3.181576054712322 5.711102867936869
46 -0.8549146138787138 3.9068351354647155 2.3599942127405638
10 -0.1863460450682641 -3.044064538127272 3.0187385931377286
51 -2.968970379167816 1.0622715322612994 1.931316794392546
2 -2.1831034112868997 2.792251896440297 -1.8909061828513667
7 -2.998853819456939 -5.042915167675477 -1.5534356944613337
39 4.841941297300275 4.009962312463497 3.272125303296308
14 4.911710517596916 -3.5914547609189067 1.6583794447219782
47 1.1897910102446607 0.3261646664863232 0.19564144161655958
52 6.79251323607508 -3.947283593475869 2.0157364881906545
15 3.562840064656442 4.372642649180183 -6.043376264940411
18 -1.029345185285976 -1.506811233364096 5.326577285710216
23 3.6341032025562177 -0.007038737207997499 1.5310894881094192
24 -0.3741337895350152 0.04179344668010474 -2.4600729135075845
26 -3.2379238976646993 -0.46347096522036035 3.610218274598173
40 -3.6370614743831715 4.263478076614073 5.25570389988019
48 4.398752585154207 4.056994731896579 -0.2052523301390161
