LAMMPS data file via write_data, version 7 Feb 2024, timestep = 1007, units = metal

53 atoms
1 atom types

0 2.62714874100737 xlo xhi
0 2.62714874100737 ylo yhi
0 139.23888327339063 zlo zhi
0 68.30586726619163 97.20450341727269 xy xz yz

Masses

1 180.94788

Atoms # atomic

45 1 4.743662908852128 4.263231581482514 4.478328099321111 -2 1 0
53 1 1.429596265978698 2.5422488366501623 2.0570454835958123 2 0 0
52 1 5.850424529459412 5.789800186976471 7.090270192075319 0 0 0
22 1 4.9645443051421045 9.018082649104432 9.603700330523248 0 0 0
41 1 6.313160407134297 10.7895999304633 11.861186489373289 0 -1 0
11 1 8.63476953620919 12.533686196332852 14.393345072314181 0 -2 0
6 1 9.533876640416537 14.661197480351985 18.99295817297924 1 0 0
17 1 10.037831970857546 13.81316063853483 16.541353590070305 0 0 0
29 1 10.799240598445653 16.15495531885415 21.158730911495006 1 0 0
26 1 13.483771320219155 18.76525904453917 25.175287965578406 0 1 0
42 1 12.158287921477001 17.50164737470798 23.098641933018055 1 1 0
5 1 14.861845003201385 20.301687365618612 27.26537055064735 1 0 0
14 1 15.79087663389235 22.456412524330776 29.835562772517886 1 0 0
37 1 16.735280456790655 23.943350019247294 32.17867990505329 1 0 0
13 1 19.122250792891176 25.67889165797696 35.439297620006094 -1 0 0
49 1 19.400124820102775 28.087234626465886 38.072007608151985 2 -1 0
9 1 20.658944584144134 29.37986256630739 40.1775499445305 -1 1 0
20 1 21.448837276796965 30.7457735944085 42.83440521512136 0 1 0
50 1 24.66165206274841 31.916756126816125 45.17871590762566 -1 0 0
12 1 23.438830958370144 33.162370410275166 47.3191871547139 0 0 0
25 1 24.630581919170638 37.01864815625755 49.727652768459535 2 1 0
16 1 27.618689707675316 41.25227903457402 56.092284884626494 0 0 0
1 1 30.370040487727618 42.46902219688847 58.46947069675408 -1 -1 0
44 1 31.51392194682165 44.15297588236335 60.7905235251515 -1 1 0
46 1 32.74122223421016 45.84035733759075 62.92392650376776 0 -2 0
40 1 33.91944656444588 47.24671838810387 65.04700884506197 0 -1 0
32 1 35.226848748106626 48.44946878580801 67.22070305188632 0 -1 0
4 1 36.24108889631744 48.93832652536411 69.70900805446979 0 1 0
31 1 37.462043468538276 50.21725399215427 71.70418108257934 0 1 0
28 1 38.78211156223753 53.24899570087607 74.03232495864424 0 1 0
23 1 37.51009346183687 53.37102058295843 76.42429529738865 0 0 0
34 1 39.133412185564666 56.44509941304341 78.87678206052085 0 1 0
30 1 40.80761299437425 57.39134943264373 81.30427576017138 0 1 0
10 1 41.315789403289116 58.656752651309716 83.63053651290264 0 1 0
2 1 43.18079167298058 60.87840364524946 86.95385243912901 1 2 0
43 1 45.20607851408314 62.65575962531972 89.5206912660285 1 1 0
27 1 47.69184053793595 67.03829226223598 92.32830388858285 2 1 0
38 1 49.085198249680346 68.53922515800959 95.15277093305563 2 1 0
15 1 51.65789493170642 71.359662297476 100.06775786522769 0 2 0
35 1 50.353865788850236 74.1146794340128 102.4329793997261 2 1 0
18 1 51.808456242113635 73.69305680566914 105.31977929593779 1 1 0
8 1 53.64659107352106 76.55916080056917 108.0329148962187 1 1 0
21 1 54.957176641690126 77.95223305414655 110.02297650222765 2 1 0
7 1 56.273588760018676 80.9180093274276 112.38023311715595 1 0 0
24 1 58.83514285357634 82.08258914912285 114.89138612002867 0 0 0
39 1 59.86555001035622 82.14346197640594 117.37320897784349 0 2 0
47 1 60.80884158091733 84.82110627234535 119.97098529338845 0 3 0
3 1 60.61891585761343 85.88783285032122 122.42473668141986 1 1 0
48 1 63.76014367912617 90.14876078520268 126.70804436828729 0 2 0
19 1 65.7424548004269 90.8812276133983 129.1856782070372 0 1 0
33 1 69.61243951485409 96.7494159800707 137.71199933482075 1 2 0
36 1 65.60442154647681 95.11328853695542 132.73667656989952 2 -1 0
51 1 66.90739655121264 95.34839427922671 135.32332024584963 2 2 0

Velocities

45 -4.300435208971357 -0.20295731119605906 0.4795979905276256
53 4.221019496844426 0.6605823098137685 1.1230000287308477
52 2.4019732896914316 1.6316296209662542 -1.1260853301082974
22 -0.4628056754412973 3.622623246507902 2.956503552220117
41 -0.45886377676300444 0.4821320938462213 2.3390507224422787
11 2.1882698157063865 -5.056460312384953 0.11625785427424212
6 1.57051532687305 1.4003404320727348 5.556421676849569
17 -0.12568594234155891 0.5412816866227441 -1.0508659101582953
29 3.985066075881079 0.6144954935163128 2.177543319246621
26 3.753742729049201 0.3586119047244813 -2.2801411816387356
42 -0.3375289380435393 4.168496178572676 -1.916477157283775
5 -2.332487198179832 -1.9531216352015164 2.880136672049917
14 2.7522742377054694 -1.4725874402491543 0.22733967813344505
37 1.007200452113831 0.052349736683010954 0.27395410801474057
13 -0.9262244692775552 0.4358961332830458 3.0406174837282984
49 3.965791711619188 -3.293608627009058 2.702938983994095
9 -3.070517527430159 2.3439184213606574 -1.017452786907517
20 -1.3050572623719305 2.214267675546284 -0.89904587804408
50 -3.1072796790364032 -3.6050336323790213 -1.049890899109791
12 -2.0076940550275557 -2.5130378671516387 -2.5821623291308318
25 3.0684584362922935 3.204071725396647 -2.83086832652981
16 -1.207401623012337 0.1302570553210822 2.0914200307505912
1 -1.057472848158829 -0.4801005848361378 7.614331438926605
44 -3.2183399666576302 4.114013273301117 0.10544256685244385
46 -0.008452762880389524 -3.520642404426619 1.1993004292027198
40 1.9838713073622518 -2.5756897201581888 0.3088460192068023
32 -0.7991352764994757 0.37444012407868055 0.26293529887353956
4 0.31210154786656663 -0.4687827959739328 5.685935919444269
31 0.5038946780800653 -0.34720888490625 -1.1515486574356857
28 -1.2127280577955808 1.3057068926212352 3.878948469343118
23 -2.206803120534484 -2.8222099191465215 -0.41576613736511664
34 -2.6876968633072167 1.5761549542164346 -2.0514653165393075
30 0.824685229820419 -2.338434664475997 0.17304248060945895
10 -3.1328260065054754 0.21306225533922793 -0.3534258645140498
2 1.2818714848801336 1.042690288122139 -2.2480253185047587
43 -0.24313974607548677 -2.0195914598510467 2.5568513370247343
27 3.7808093505794704 0.1850273583883339 -2.4742918083273993
38 3.312087141399065 0.8564759357666661 -6.019262991343455
15 -1.553230142089288 2.025360547876953 -1.1246842429380413
35 1.766576439886753 1.009272318099441 -2.6151548733057877
18 -0.8982202241860462 -1.9958272062857634 1.432001057800304
8 -0.7331933974083232 2.3114424504836935 1.8024337576832556
21 2.072019034764937 0.9894299627342138 -0.028853399643245514
7 -1.7646626918114516 -2.0253071557216793 -3.040756481056713
24 -2.2574284409113003 -2.888578352359004 -3.6798010139499366
39 0.37357143746786753 -0.7032677621115324 -4.49758822809617
47 -2.248390253430437 5.5211133244169215 -0.646346864088143
3 -0.30585419421915894 -3.5370733068639204 -1.2553052713490458
48 -2.6125458740628673 2.2518305074912517 1.7005774626099468
19 -0.8778893098373227 0.8966574183605645 -4.379238030781808
33 -1.639612185135228 1.305105325144806 3.2172624809737838
36 -1.538627059071161 -4.745062219842389 -7.3627247030281495
51 5.512430552589827 0.7258466118548912 2.1945381816644978
