LAMMPS data file via write_data, version 7 Feb 2024, timestep = 1013, units = metal

67 atoms
1 atom types

0 2.62714874100737 xlo xhi
0 2.62714874100737 ylo yhi
0 176.01896564749381 zlo zhi
0 60.42442104316952 18.39004118705159 xy xz yz

Masses

1 180.94788

Atoms # atomic

1 1 2.0553641964267544 2.307034035771304 1.5583611544385547 1 -2 0
4 1 2.3478410011684767 2.985841286834659 6.080678133293581 0 0 0
38 1 3.653642074888322 1.6471737477269968 3.967167861192401 0 1 0
25 1 3.851846507477426 2.6672277679479643 11.21812396526065 1 -1 0
35 1 5.443329141963398 2.5792464177197427 8.725074714213587 -1 0 0
16 1 6.622310175384582 2.7136943107890605 14.075185521915726 0 0 0
20 1 7.860058120210036 3.420806631343859 16.860986943717336 0 1 0
9 1 9.134056773944192 2.25679241013674 19.104388477193556 -2 0 0
10 1 9.340861589668153 3.5806623978176644 21.56411735900321 0 0 0
40 1 10.330326878612851 4.8724548068695395 23.713567078622415 0 -1 0
52 1 9.138446700831052 4.44281806167271 26.115990703514203 1 0 0
24 1 10.49038794878922 3.300645185405849 28.368001883584224 1 0 0
56 1 11.939955538349654 5.209516943777992 30.69540479369902 2 0 0
64 1 12.867511311025035 4.033646917496668 34.81594071657287 0 1 0
45 1 16.123461425426445 5.408211522622771 39.638840740958585 -1 0 0
47 1 14.353794743447823 4.506321749156214 37.24575446961835 -2 2 0
65 1 16.27622427736331 6.856923444657587 46.731185508706446 0 0 0
36 1 17.77265371842991 7.128525518878892 44.28849000847003 -1 1 0
32 1 19.54353891519549 5.593314544729198 52.29532576595716 0 2 0
19 1 17.58280536213245 7.542158114818746 49.206104635848625 1 1 0
17 1 19.177697634793184 6.292432338364691 55.44408649582043 2 0 0
48 1 21.730891028937847 8.383020070504633 62.208817956299356 1 0 0
58 1 23.985942995664573 7.962059312531221 64.831537197263 0 2 0
67 1 25.201004292304958 9.220742234985526 67.14415201402474 -1 0 0
15 1 26.30282451601176 7.9745579911774325 69.34555990675076 -1 2 0
30 1 25.00650392465439 8.199295144530254 71.70988436866442 0 0 0
14 1 26.060990739244122 8.892810076018893 74.09900841784872 0 2 0
7 1 26.94787597693001 10.189772075437618 76.36575841678159 1 0 0
28 1 27.873024418008967 8.965363562646267 78.62763017980313 1 2 0
26 1 29.67012725484708 8.61640051399672 81.17586325488193 0 1 0
55 1 29.378986088365508 11.010106329468403 85.23847545464191 0 -1 0
12 1 32.709485065696214 9.671669786443493 90.25005986006049 0 2 0
33 1 31.39299261976615 10.970608872830196 88.2870411105565 1 0 0
44 1 31.800554009853226 10.98548976387297 92.44208009835087 2 1 0
42 1 32.579379637953785 12.275513654620717 94.80229252910519 0 0 0
21 1 33.83314763277372 10.948864575779941 96.99029763324651 0 2 0
5 1 35.143801761002685 12.220147300435697 99.00154162822454 1 0 0
61 1 36.110628555463165 12.037186352012753 101.51207630364678 0 1 0
11 1 37.19549978858147 11.029515809530933 104.84619227513548 2 1 0
23 1 38.1282153088154 12.938158786100294 107.40680469851586 1 2 0
29 1 39.69365921487307 12.502991620799154 110.16388364147302 1 2 0
49 1 41.00195074688135 13.653376833663627 112.24737345860524 1 1 0
41 1 40.683350219103495 13.10048192398606 114.84685950903994 0 0 0
31 1 43.41856317876449 13.04946786755969 120.19979895757487 2 1 0
53 1 42.90115378626192 14.132555552697125 117.51209900626088 2 -1 0
46 1 42.864290591206945 14.964153917721507 123.98419817836535 1 1 0
3 1 43.72788556333201 15.090573813253757 127.07164957921034 1 -1 0
37 1 47.05515572602976 14.527640781701926 130.376173740737 -1 -1 0
63 1 47.800188432673906 15.105959138973299 132.90493498630929 2 1 0
13 1 48.64675523593826 15.810278034416271 135.63365989335236 0 -1 0
8 1 47.48948707746117 15.125427092392858 137.99522676427475 1 1 0
50 1 48.96746542279071 16.41626337098679 140.07953454077014 0 1 0
34 1 50.113220092483324 17.403491268549068 145.92163242702787 0 2 0
57 1 49.921161435924375 15.096016097061202 142.61896401391965 1 2 0
59 1 51.98641712868755 16.845647427362163 148.45104975573275 0 1 0
39 1 53.88715903233745 18.034532766471514 153.68134871695747 0 1 0
51 1 53.2877341628044 17.582536571375496 151.13408244446023 2 0 0
6 1 55.1150853479414 18.094125856346768 156.14693298970434 1 -1 0
22 1 55.99945248220128 19.316359344615364 162.25993766198744 1 0 0
66 1 56.32405519603175 16.762923478037138 158.12557961193963 0 0 0
18 1 57.35049713959181 18.031313789833508 160.23563366947795 1 1 0
2 1 58.1565487279292 17.770257602538013 168.60618766983492 2 1 0
43 1 58.19427289424104 17.891847764588913 164.61342982649415 1 1 0
62 1 59.50441965313809 19.159607058879537 166.55417881251995 1 0 0
27 1 60.21905195450539 20.294405645748608 172.77104100519597 0 0 0
54 1 61.47824873557301 18.38978671271181 175.04736705700927 1 2 0
60 1 59.45643277291405 19.074630361016887 170.5992242048054 2 0 0

Velocities

1 -0.024895315396658055 -3.0737850231246457 3.8550626156263332
4 -3.436500611701519 1.344313456599138 5.120369588574971
38 0.6103374299491486 2.4377361613961077 2.2868271310382355
25 -0.6116314394820516 -1.5885924164468899 -1.782309895761617
35 0.8406241472992332 -2.22995300350272 1.0360938674986906
16 1.297710993182706 -0.32304707035194824 5.017408601838859
20 -1.072282621395542 2.5488225098702006 -2.4946669268917203
9 -2.7780991933718893 -1.7990363454208742 -1.7350124353151157
10 -1.1194279693078024 -2.658194601269374 -6.107597012743188
40 0.6795630588074612 -1.713629071573639 0.45026621329595656
52 -0.6166019188248713 -2.516092443916149 -2.2629076373547075
24 0.5298862446486224 -1.3448270677285752 1.2365681096896854
56 4.2664019595147975 0.8864870915867058 -2.5955089026309217
64 0.3320454688511802 0.4994498193678007 -0.0713119599100991
45 -2.2795514304182287 -0.2249464238569242 2.9131498542981538
47 -4.0003730716556145 6.372031371712162 -0.29899186629404084
65 -1.1493909603182206 -0.6862696121708101 4.940073487580074
36 -1.960458447246905 1.0699731896794586 5.137157562567752
32 -1.9674340377918176 2.5505637440093682 -2.0685292165792015
19 -0.03803539212973852 1.585808781896498 -2.6001479765484627
17 2.3151649073132914 -1.1068766067355915 -6.633951237100308
48 0.9727183932929432 -0.5380225026869688 0.7906941622876162
58 -1.114541701948091 5.7162710797181 -4.76149080897618
67 -0.5335524966276156 1.2106310994167468 -3.925870257679405
15 -2.043921247333305 0.3816350794266501 -2.103504958405776
30 -2.747159141771741 1.3598795379862223 3.5420859788201153
14 -1.7832948714516044 4.278229278956337 0.45563475996686664
7 0.21301026696448272 -3.8558385487986087 -0.26020456141459475
28 2.589814172509872 6.073259469761768 2.0607641791401083
26 -2.0231511014161625 -0.4930944160023563 -3.396640982026534
55 0.9115588260894544 -3.884282364404045 0.4726222476315653
12 0.5373550006166686 2.2886597092771965 -0.41017101202125805
33 1.4922781706906636 -1.497910081540968 1.7237592345908077
44 1.6522283646165694 0.7780972196216938 2.105776823155047
42 -1.049673630383318 0.27768626215682796 7.81217606485266
21 -0.9378114830384828 3.894836273143581 -1.3752584444545712
5 -2.1501834747344977 -1.9206028533459993 -2.4784579459263827
61 0.5397388005129271 -2.484302408211404 4.111527331384674
11 1.5010583660780645 -0.4948289849147294 -2.858899138782255
23 3.7711333847236723 4.362647001128726 -0.5166843510519712
29 -0.9965901672873414 1.9306961194765182 2.1510748603330643
49 2.100878483839828 3.123093925066473 2.092499241132163
41 0.15876690140018931 -0.5898168536063317 -4.5837838004644365
31 2.005667702584166 0.7663505862432347 -1.823192965664241
53 1.9090578598117296 -6.261969931164995 3.6464901262021976
46 -1.7031193322494873 0.27348090189265006 -7.282388228246244
3 0.18471141421869877 -1.277144948300753 3.330541251510263
37 -1.3398501664286695 -5.042424371182235 -2.1209563203579163
63 4.143966332135679 -1.1289392274810561 0.028131412429452024
13 2.333758876659872 -0.8043724449356043 -0.2931466851322748
8 -1.3748829500540263 2.7150948003332167 3.9669072364562132
50 0.9440760085668373 0.5192218695644798 2.1690297346277383
34 -2.266408799254093 3.123394134721109 -1.0231431833088107
57 -3.0778405830208637 -0.9431023585321413 4.881534463015136
59 -2.6224170982689783 0.27113650847266274 -0.48026496572792954
39 1.3941957367476656 0.29176644125067874 -4.066196061579952
51 2.975512567956745 -0.6858581911896365 -3.2065075900293856
6 -2.321953474023261 -0.6092131375010341 -0.6894811856265338
22 -2.3713401646158823 -2.448080836821868 -2.1369744940078292
66 2.10262303748682 -3.582689983763299 1.0276786451523874
18 -0.1100065725283457 1.951902009653324 -0.48165764843581554
2 4.531951316948206 -4.823450862223672 -2.910970427243485
43 2.4177430053534166 -1.3825321730094546 -4.192879314230883
62 -1.0631746452777364 -0.45819914723900085 4.53198946183557
27 -1.1804960889280485 -1.1672895209137837 -2.3893151723017145
54 5.195813328113968 3.942306788935118 3.5454814301416655
60 -1.5852989278031446 -3.186246388452825 1.9795998935516386
