LAMMPS data file via write_data, version 7 Feb 2024, timestep = 1010, units = metal

41 atoms
1 atom types

0 2.62714874100737 xlo xhi
0 2.62714874100737 ylo yhi
0 107.71309838130217 zlo zhi
0 5.25429748201474 28.89863615108107 xy xz yz

Masses

1 180.94788

Atoms # atomic

6 1 0.4517114979241276 0.8197259391284072 3.0154258608205855 1 1 0
7 1 1.6805803980837817 2.2147019596943616 1.0706302966148014 0 1 0
22 1 1.86997552911013 1.8987760823011886 4.97197434962516 0 1 0
31 1 0.5959523425228408 3.1408268043326792 6.955546215654012 1 2 0
4 1 2.3013564312936965 5.367573322711815 11.365384975979607 0 -1 0
8 1 1.9376011767195482 4.081523295238129 9.100928625589045 0 -1 0
9 1 2.9522148846822627 4.383664779382908 13.841498700672842 0 1 0
12 1 1.9143280914312766 4.927753565372256 16.26258009070059 1 0 0
20 1 3.2220901924730256 5.445033098037978 18.608535448324137 0 1 0
11 1 2.215814101011734 6.930668779325015 21.631028564985016 0 1 0
39 1 1.4356506747251214 8.387908067745267 23.986201593404036 1 -1 0
2 1 2.746466287388963 7.890070423704731 26.251295054593985 1 1 0
19 1 1.4420482320494696 7.772547980968096 28.6461863999247 1 -1 0
21 1 2.731573601175593 8.678028170497084 30.93562648131731 1 1 0
27 1 4.0416939555484355 9.040753639461547 33.25379276295705 -1 2 0
32 1 3.2286975635035646 11.080145814916724 38.39171146420223 0 -1 0
5 1 2.872801136065225 12.385063495676306 40.94912275956259 -1 0 0
13 1 3.76635793461227 13.90302563594196 45.68168266283186 -1 -1 0
34 1 2.529538784203767 13.708123144860801 43.33243708499961 1 1 0
14 1 3.506470375929535 14.644286464654494 51.46972928413448 0 1 0
10 1 3.15552641117814 14.86955919851023 48.83293498752931 2 2 0
26 1 4.408816482380581 15.745759171640783 56.54226485844645 0 0 0
25 1 4.932295945236721 17.587549565004398 59.04149897037235 0 0 0
30 1 5.577033374425395 16.895579356608017 61.661823227222946 1 1 0
1 1 4.126314983362537 18.042521483974483 64.01051843839662 1 -1 0
3 1 3.7077965129793666 20.116685998808606 66.60692008033813 0 -1 0
28 1 3.9663099052665607 20.29347661033209 69.61577674177245 1 1 0
36 1 3.694539095332013 20.26149196442392 72.27609839511449 2 0 0
16 1 5.365001143226553 21.89964060795043 75.42628749727015 2 1 0
17 1 5.625208567726572 21.803042784488632 80.57191596086925 2 1 0
29 1 4.852771332641655 21.09779578299965 78.08384901168841 1 2 0
38 1 5.238081885067501 23.077935005256883 83.53157785601152 2 1 0
33 1 5.456513279709938 25.738660611769927 86.43817806909858 0 2 0
24 1 4.60556301228061 26.193557198379445 88.9779287151214 1 -1 0
37 1 7.164155158026041 28.43299553164478 96.7026827394975 0 0 0
40 1 5.111309260862209 27.319947033319618 94.39345681281945 0 2 0
15 1 5.881561319064428 27.4838064089746 98.89413663818318 1 1 0
23 1 6.896611877952127 28.746494483190055 101.026729620223 0 1 0
18 1 5.577574724154611 30.048368628010408 102.98267707272193 1 1 0
35 1 5.596279364560849 29.827106521544046 106.83460296502315 1 0 0
41 1 6.910623328006452 28.62345345028714 104.91276063303766 1 0 0

Velocities

6 2.2807521532345394 1.0510879759606355 -2.9353219778709336
7 0.308571237406949 4.896478489983343 1.6020438704237012
22 1.1091297501573645 -1.1684046300988082 -0.18995805338300265
31 -2.3850572029394734 5.138190345094534 -0.7533980935603772
4 1.951219186446316 -4.057650968357142 5.068222233292676
8 1.6895136746449675 0.8935477816814306 -4.107006991457666
9 -0.22736964149014777 1.7110404499838745 -1.0670203329816559
12 0.08727028488669702 -1.002304103692785 4.712792308220107
20 2.428852039001337 1.3297602070970953 1.654167699720558
11 -0.2806292424482314 -1.1331681475049478 -3.3038394297792757
39 2.7673139034813903 1.794713373916335 -1.3080336196580047
2 -1.1354829371762045 -1.124200854225561 2.0812179608525296
19 4.948172439303986 -3.615806768613832 -4.055623377619434
21 -0.855583903274347 2.0740129608196995 3.441477988766081
27 -3.0066302032491263 2.4036105090698654 2.029223680524924
32 -0.3272658374158497 -4.552667110434805 -2.1598083502382432
5 -2.55269053816808 -0.9620230981750116 -3.8048634404680235
13 -5.728492397320033 -4.0407093260734195 -1.8204109657322005
34 -1.2623539040821348 5.287637146038292 7.697208593101891
14 -3.147082034907356 2.175059131146518 5.385663137954088
10 4.828603704125289 4.6737488072193765 0.07546032206640463
26 -0.053560380566576346 -2.00483809560329 -1.1967399388240902
25 -1.6737175237552195 -0.2714884437453759 1.5398262038997403
30 0.6834356469266549 1.5029088942566313 5.272961107601333
1 2.857184941447007 -3.442771853835606 5.1165029591799085
3 -2.568423739925597 -2.963169631181361 -0.595104029941448
28 -1.0799217744885083 0.7869810391322085 -0.9367897956934265
36 1.8848157183726286 -2.1250424630091835 -2.599257716164993
16 3.7398190034744614 0.06938212359509241 -7.944095247462982
17 4.31113587069179 -1.0748324984883058 -11.761593803230017
29 -2.550610757297539 -1.9344396541713458 -4.481090157503168
38 2.7046546399236906 0.32788329416293677 0.8216481563078039
33 -0.5085864337769221 3.147023375285105 0.8033435129882167
24 -1.7089050555397558 -4.8771129031873555 -0.16832920566039228
37 -0.8849105398344583 1.4923641288654457 7.111035083434817
40 -2.0822165803336654 5.169666257004683 -7.872183217490546
15 -1.076834462024351 2.654792393712718 -0.7560593508893596
23 -3.3455845247228866 -1.1692504403556054 4.053973587061271
18 0.33338132107898594 2.388417543305453 -2.3747759446675083
35 -1.7250481428598994 -3.575888312338007 3.179762521497996
41 1.2531322429923126 -5.87253692423954 4.544772113382678
