LAMMPS data file via write_data, version 7 Feb 2024, timestep = 1011, units = metal

44 atoms
1 atom types

0 28.89863615108107 xlo xhi
0 5.25429748201474 ylo yhi
0 5.25429748201474 zlo zhi
0 0 2.62714874100737 xy xz yz

Masses

1 180.94788

Atoms # atomic

1 1 2.7923694073177363 1.4478451411186959 0.8830858577595502 0 0 0
5 1 4.173204524410429 2.492864631617931 3.117148231098985 0 0 0
6 1 4.415633600193281 5.061400582007416 2.3000523307457272 0 0 0
19 1 1.8235122475141061 4.740779937180687 3.1510180032132813 0 0 0
20 1 2.8726175549176514 4.071798099095568 0.3180431235147613 0 0 0
25 1 5.672089878353232 0.474651801183766 0.04502795806605267 0 1 1
26 1 6.092110113028442 5.883363465425157 4.209024903133023 0 0 -1
40 1 6.353170477822884 2.631561425868627 1.5447487772393456 0 0 0
37 1 1.2832733413472537 2.1200853445474124 3.460042775687127 1 0 0
2 1 10.360083268627763 5.234726571672694 0.7848101637501189 0 -1 0
7 1 12.217573606513293 4.61383759091936 2.6064490854812075 0 -1 1
8 1 10.044037057891748 2.3322536815294588 2.0736719948942333 0 0 0
11 1 14.206331451005687 3.580035759895219 1.2008298336396335 0 0 0
12 1 7.9857635589054725 5.691544989727588 2.17698923685405 0 0 0
17 1 12.021122684367286 2.151650134510154 0.23031863071912287 0 0 1
23 1 14.551085351716363 5.144513371206681 3.976042241839886 0 0 0
27 1 7.847583967736096 2.800389374121112 3.7512385796924588 0 0 1
38 1 9.899707671146139 4.4551394224503325 3.8244303555296777 0 1 -1
39 1 13.996869675482726 0.9631264915014679 1.54486812459224 0 1 0
42 1 8.495640482460853 3.424005211258755 0.15890147788885342 0 0 0
43 1 11.929366232535074 7.1446700984134335 3.9610837306941793 0 0 -1
31 1 14.635517237609315 2.5598716309037193 3.667886202517709 0 0 0
3 1 18.797415796483516 2.5304377554790642 0.6289204910890374 0 0 0
4 1 16.64044700453058 1.0565854016274685 1.1090327705731697 0 1 1
15 1 18.111233877582425 5.6362720051108495 3.259655436609028 0 -1 0
16 1 16.91425349017135 3.3256693930995382 2.506893653000598 0 0 0
24 1 20.13440861362008 3.811673954986395 2.6005597421915354 0 0 0
28 1 16.518090250772346 6.5421392702145855 5.169063100831569 0 0 0
33 1 18.68649214576283 2.7809142254421095 4.610870183424654 0 1 -1
34 1 20.526042839488202 6.415991041843313 2.4045437988039975 0 -1 0
44 1 20.88855698001891 6.575485117908999 5.106048980159117 0 0 -1
18 1 0.5048365452159189 5.303984638576247 0.7140141331808648 0 -1 1
22 1 27.497552519320607 1.28983032562417 2.2308281692684235 -1 0 1
30 1 28.09770110312904 3.871006253585069 2.5531153545171725 -1 0 0
32 1 27.96715893352721 5.845333458904191 4.895824749250045 -1 0 0
9 1 24.513244884813187 3.681474151558519 4.017814646162074 0 0 -1
10 1 22.659256628862067 2.8472530922578 2.2819645141775022 0 1 0
13 1 26.9969736062749 3.2525699535578836 4.912850625003412 0 0 0
14 1 25.6376949681785 4.612657768563113 1.75788361613217 0 0 0
21 1 23.46367789227442 4.373669233294764 0.28201736162975966 0 0 0
29 1 25.42761676205823 6.252372974592398 3.8666775865970386 0 0 -1
35 1 25.05906004101812 1.9601273918672406 1.2953465500907324 0 0 0
36 1 23.049256783619327 5.457312343480895 2.7517229466445334 0 0 0
41 1 21.95312214872712 3.974978754894578 4.971647547109553 0 0 0

Velocities

1 -1.4035852591615026 -4.687478766108983 1.6149358150835829
5 -3.198282139438217 3.977873160008294 -6.098587061342033
6 0.9386398295476126 -2.039269106940452 1.376358574777803
19 -1.5540194500594977 2.919842366297315 -4.26874988204043
20 1.1467580185034387 1.1520686437933507 3.528988269738087
25 -0.7129215054913336 9.976426252444226 4.522973216697036
26 -4.10814417677861 0.789150294682146 -3.256873091905959
40 2.395947991147482 -0.6641181334040541 0.5551836352865264
37 -5.340745296270644 0.9838632624229116 1.0549511008789731
2 8.099152173238641 -2.885793604706626 -1.104537688256117
7 -0.3981724303731487 -0.809575791662309 -1.267042097807803
8 2.3487938676320295 -4.915760742860346 1.4009631020940787
11 1.277074577882833 -0.79593196674812 -0.9491382346387895
12 2.9294876888128805 -1.8559159193352812 1.0449144495949882
17 -3.4447125893722035 9.735237855342815 0.8384320488676263
23 0.18187220734995319 1.2957827308925387 -4.594464641420154
27 0.7779382442171997 -0.8308068630456049 -2.3724428581984083
38 4.623121792720914 -3.1631573684940353 -5.415690373933132
39 -1.592308312977236 -1.364788112986983 6.6957443716271055
42 0.01705430193495856 -3.307755958919947 -1.2153027280988271
43 2.858767977336083 0.8191908690297612 -3.8394136005099795
31 -0.5753719969770121 -1.1284853873502272 5.42754324409065
3 -2.5728416728520913 2.456714829123152 1.0470171949977563
4 8.4243205451381 3.937988830974478 2.9935238261035075
15 -0.13816369640402876 -3.0613038959533516 4.272619371003665
16 2.387487592492072 -3.811988068955431 -3.772656360655009
24 0.5343336262830282 -1.302347297568904 -4.679508006212242
28 -1.8745005575518379 0.5660037034663284 1.056311590205579
33 1.9424876924512915 3.1714169277955526 -2.4478628720062376
34 3.0627005975392296 3.17200939614946 4.7827553030025705
44 3.017206611587637 2.073348823122729 -3.3524122416475493
18 -1.2017028311584836 0.9015297958467101 2.0757286488230284
22 -2.6624801774305737 -1.1835879085324608 2.156066392374627
30 -0.3374427544981022 -1.8669850236113583 0.023200025223784566
32 -3.587634486473696 -2.0709586268497993 0.9199429338380429
9 -0.8155477425200705 -7.628989093418275 -2.4294731893545087
10 -6.024010629378168 5.126425051563497 2.1879965221423596
13 2.653898710742812 0.8573169466419881 -2.545193268353613
14 3.3315964104823723 0.04143671863850866 0.318602543111076
21 -5.1153141727069675 -1.457992112452474 -0.4017238711509196
29 -7.65957845690235 2.3824308294254815 -1.3012166441284365
35 1.025256440604919 -2.0074786320180547 -0.3106328988722211
36 1.8252282518319163 -2.4410591618367308 4.690540435974132
41 -1.481644814701697 -1.0545297439013928 1.037628994995671
