LAMMPS data file via write_data, version 7 Feb 2024, timestep = 1024, units = metal

45 atoms
1 atom types

0 7.8814462230221105 xlo xhi
0 13.135743705036852 ylo yhi
0 7.8814462230221105 zlo zhi
0 2.62714874100737 5.25429748201474 xy xz yz

Masses

1 180.94788

Atoms # atomic

2 1 4.982877850285094 8.02051653840941 7.191158587532594 0 0 0
7 1 4.274936298502768 2.746638371482553 2.3378269544453363 0 0 1
9 1 2.363552342220661 6.167230960711799 5.7985748427425 0 0 0
12 1 7.408426613977385 5.190922033187867 4.668047184297775 0 0 0
14 1 4.910351213274762 6.538356222094349 4.956824353678263 0 0 0
16 1 1.9395049310806696 4.095510190253344 4.164354738814795 1 0 0
18 1 5.0121987530952214 3.8514427061498306 4.689011235373788 0 0 0
19 1 2.589107756044923 8.728824716087779 5.079394457204849 1 0 0
22 1 6.542118113105383 6.876931263946696 2.847721612378033 0 0 0
24 1 1.4757679881730135 6.642435437165275 3.3071471472762255 0 0 0
26 1 7.8032036169003725 8.959589527148523 4.050996994953249 0 0 0
28 1 7.901084493820333 4.760720268852599 1.960817498234656 -1 0 0
31 1 6.389160276313717 2.336660896062235 0.644941631772891 0 0 0
32 1 7.159038403964219 2.6820814624322304 3.5213681898992317 0 0 0
35 1 3.8617121007248376 5.375905027645129 2.7844910559276452 0 0 0
41 1 0.2888618108373865 7.613230794999561 0.643062966900695 1 0 0
3 1 7.455895979812553 7.399042884141931 6.222808389196122 0 0 0
10 1 0.606935585125585 0.6361596309111479 0.43150218188438866 1 1 0
23 1 4.129512215698873 8.050025154073628 2.62524614024116 0 0 0
34 1 1.5713377962246713 2.5503188998144797 2.0272152040363602 0 1 0
36 1 2.784583839423236 6.556410412848716 0.6137104213441715 0 0 1
39 1 5.228934651849158 9.233055114691439 4.776386196969224 0 0 0
40 1 5.572748950080074 6.926491563801729 0.3138147238928756 0 0 1
44 1 6.424573965357844 9.318586597201513 1.7776561895177063 0 0 0
4 1 6.7366929834007365 10.87416976464555 6.277150988056997 0 0 -1
13 1 8.203515922048568 13.588658983827873 5.891163442537412 -1 -1 0
15 1 9.100188414088453 9.86920619147866 7.0982927740649915 0 0 -1
17 1 2.083431152705597 9.797591505275648 2.660904811362685 0 0 0
43 1 4.254353025470699 15.261183833242622 6.62940303897856 1 0 -1
45 1 9.911715008844245 16.805498990867175 6.8107214810988035 -1 -1 0
1 1 5.804436059339859 13.666663174160316 2.582109124067152 0 0 0
5 1 4.3659538555761435 11.068891447582748 1.6773935215124758 0 0 0
6 1 5.345853321761722 17.748458612828614 7.240774316657633 0 0 -1
8 1 3.795736160723891 11.558960968686222 4.261321058390857 0 0 0
11 1 8.14460866412451 11.358371813481552 1.5010474975051231 -1 0 1
20 1 6.513611769361927 11.30566112899117 3.6364065817538442 -1 0 0
21 1 8.42394067235937 13.468989723201739 3.2248964583616164 -1 0 0
25 1 3.153072241965368 13.403547036082887 2.2025545119159853 0 0 0
27 1 3.8312518885543208 10.47491822513522 6.752362310006048 0 0 0
29 1 6.4451550403783715 14.214552604879303 7.863892116923667 0 0 0
30 1 2.715921842506633 14.059762500440257 4.773157825330194 0 0 0
33 1 5.592367513568314 13.340625961794924 5.237193587990624 0 0 0
37 1 7.355789712589935 16.134049152027053 6.197380947005953 0 0 0
38 1 7.9262746796477135 5.21333158437716 7.800193027814263 0 1 -1
42 1 9.017340861493716 11.279548267624254 4.707545750104618 -1 0 0

Velocities

2 3.274965052635321 -5.115584282380246 2.063188304854387
7 -0.4844951039572758 2.664576674396454 0.8233963049127087
9 2.385223287474241 -1.7494953774436188 -0.6366587465409188
12 2.1427467853231765 -3.8932228082782894 1.799019766400497
14 -4.714934449316211 -0.3917994939105918 -0.4973200604709331
16 5.55620153036611 -3.9422931476347833 3.7853523356694794
18 0.8541743262948316 -0.6974812920257307 -1.258621209566232
19 -2.169275925055355 -2.9552450470566796 -1.1135946604093774
22 1.5040699793757966 4.383220409158401 -4.28069030001174
24 1.603461631048629 3.5409783417493736 2.4222288077233705
26 -1.9365015808148378 -0.7181319444953502 -0.26198766501414666
28 -3.3512318105144683 -0.9209115113168578 0.6909099102287874
31 -0.6576648105097558 1.4136953558284604 -3.237015122294661
32 1.8145775591846038 -0.331954235744712 4.5695127264923725
35 1.843796433193715 0.44554538468864724 3.965925072439817
41 -6.2542901448055055 3.675944157302124 0.5744293734790279
3 0.5241927347347886 -1.729338251653111 2.02221671010172
10 4.321920153244657 -1.9154727279764412 -3.303928690948196
23 0.2121944600725595 -7.336151265869266 -0.5410196257030495
34 0.007278392807658929 2.124962844175563 -1.7411617016303682
36 3.614622122729773 3.325220518914744 1.2941585608777586
39 6.271010853716384 -4.83593175787126 0.7403090847100724
40 0.16016799885874392 -2.146923759797815 0.14151025340794424
44 2.8215357780549053 2.1128240610968505 -0.2864788102480389
4 -1.3809667115357704 1.3975560835140661 -1.0733617387072576
13 1.9265339226975944 -2.7671504572408074 -0.6111772534934811
15 -5.87827621740483 2.8452828798473515 1.337359295516366
17 -5.073903279938311 1.9967692680463505 0.9955552613183478
43 -1.0020386720790113 2.2090049595329977 -7.118419172940675
45 -2.282540325988007 2.4364651031949394 1.929790093042188
1 -0.2625806775689818 -3.7442473765479622 -4.817279718254395
5 -0.1061626081013323 1.4813259978732582 -4.911606955921683
6 -1.872801886352843 0.8692356322742472 2.3342546557031367
8 -2.9049030996886653 2.185088492110683 3.9370154844158485
11 3.0036453153340323 3.3995682784088084 -2.3885501139606693
20 1.2023483602871754 -3.3901794277755424 -3.242081475785235
21 -1.4608666680845253 0.43544498564203515 -2.9396393381101764
25 -0.8409072200019486 -1.362530449981978 -4.8302696386179145
27 -4.1732619740624814 3.3827216048478856 3.5907310717676117
29 -0.1393823681027893 2.90304426733726 7.476618021577528
30 0.8131129828586823 1.0029449133861486 2.753140530953015
33 -7.8991460875989175 -4.092495180201985 1.692937836777289
37 3.7819947329644643 0.11578217467732832 0.15895784762535745
38 2.0089449134019355 3.789105765543246 0.7362625885356351
42 3.1974123148219182 -0.09976835834421487 -2.7439178999011116
