LAMMPS data file via write_data, version 7 Feb 2024, timestep = 1008, units = metal

63 atoms
1 atom types

0 7.8814462230221105 xlo xhi
0 7.8814462230221105 ylo yhi
0 18.39004118705159 zlo zhi
-2.62714874100737 2.62714874100737 0 xy xz yz

Masses

1 180.94788

Atoms # atomic

1 1 0.5390252349231497 7.41834824615815 7.2837882350997365 1 0 0
6 1 5.956732400990285 4.63764633998767 8.67966909728191 0 0 0
7 1 5.071442919063155 3.754688699857315 5.274803654455163 0 0 0
16 1 4.35188161962452 5.785858628773131 6.8200930546948895 1 0 0
17 1 6.368591878763251 0.43649924779840676 7.286411171041237 1 1 0
18 1 2.6572249561770342 6.980472954393971 5.266470483626124 1 0 0
19 1 2.2666077401844653 3.4853868500292076 5.992812691748198 1 1 0
21 1 4.480789115756191 4.314455237520945 1.7126596093726305 1 0 0
25 1 0.42462994187849235 5.751299813524196 4.251513827638096 1 0 0
28 1 7.459090818117035 2.5049895002945974 5.8945521247525345 0 0 0
29 1 8.684593448169188 0.14012062036790696 6.0682235918368095 1 1 0
30 1 5.330979637119388 6.205799057655285 4.266095485947406 0 0 0
31 1 1.11233818756959 5.223074460931667 1.6897620895765195 1 0 0
32 1 3.3590479491678114 3.806329414490439 8.319628537738787 1 0 0
34 1 1.078987450585465 2.9515664848206713 3.673824014736649 1 1 0
36 1 1.6687282889450548 0.6764938869750603 2.4893063087809715 1 0 0
41 1 3.6669431485366912 2.4490631265088076 3.315267900789697 0 0 0
43 1 2.89673017091418 4.898185771316625 3.7273700665228677 1 0 0
44 1 3.0638521426742162 0.4427464560209902 4.8488200180004 1 1 0
46 1 2.8850982488802845 6.834835200831879 0.45319752756576337 0 0 0
52 1 -0.07632009004921836 4.933204103283069 6.737530668937264 1 0 0
55 1 1.6082854470689631 7.853801985211377 2.4386144601990467 1 0 0
56 1 5.970855082260893 1.346717466225061 4.009620783657158 0 0 0
57 1 2.468975133638192 6.2773276051970175 8.77061455161462 1 1 0
58 1 -1.6535338912299904 6.2368814568231965 1.7368352106293299 1 0 0
59 1 4.7048910723539565 2.3580995829594253 0.009776735347227283 0 1 0
4 1 5.231369203558346 7.194867128755253 9.199890477175874 0 0 0
5 1 6.586565120260935 3.940854313273667 3.238013020312747 0 1 1
38 1 -0.45087641560925806 2.083319017780679 1.555909329717004 1 1 1
42 1 2.109661423359674 2.8982482862494092 0.7216130101104379 0 1 1
48 1 4.201434816883947 1.7946358154389295 6.7738279588310695 1 1 0
8 1 2.874131233007156 4.920732661565175 15.985038214421126 1 0 -1
10 1 0.05492472119271241 7.805548421307612 18.132345086241045 1 -1 -1
33 1 2.521173674446776 1.350380045550364 9.178533710195605 1 1 0
39 1 2.740664914477016 7.106334171197556 18.346497771747636 1 0 -1
45 1 8.805141800740387 4.852887327643614 17.804619930335367 0 0 -1
62 1 -0.11383454871313603 6.54595057426692 9.766251299810824 1 0 0
2 1 8.237816432480981 1.103504135117665 11.26873172439989 0 1 0
3 1 3.9177372527524668 0.17363414316438935 13.068719387228468 1 1 0
9 1 6.939083838675993 6.955529038965086 12.35975956287936 0 0 0
11 1 5.443837763210311 6.135242839486819 14.424092764092787 0 0 0
12 1 5.941801854388649 2.159911730294813 12.320374167370296 1 1 0
13 1 6.641068993674876 3.8104217482827707 14.200918028650792 0 1 0
14 1 3.0462024419703377 0.30113988472296127 15.579491748571343 1 1 0
15 1 2.7136714023372654 2.4842919629721063 17.326919599008775 1 1 0
20 1 4.209537411829169 2.4305480047571337 14.346623280371826 1 1 0
22 1 7.041311412698636 2.217784168375293 9.07930155015259 0 1 0
23 1 0.6446216003455456 5.745781787006669 14.411653009126844 1 0 0
24 1 1.3524021290670083 2.1426397866584317 13.550327585644808 2 1 0
26 1 4.258782035634246 6.834853749740482 12.091594719858083 1 1 0
27 1 2.836264176738407 4.380354928480977 13.392899459358528 1 1 0
35 1 6.873346730895847 4.476726744137321 11.364593139568807 0 1 0
37 1 5.412700457493047 0.49170652353200295 10.390290678556749 1 1 0
40 1 6.543654332792401 5.585858887922202 16.77624329013286 1 1 0
47 1 3.0908285570821525 7.197831478610975 14.624699537453859 1 1 0
49 1 1.7643116043388634 5.9419053366851875 11.582187798388587 1 0 0
50 1 8.335097662446342 2.863005467397189 15.967361587781133 0 1 0
51 1 4.2969565217151615 4.5339834272119255 10.746139064202842 0 0 0
53 1 5.864717733489747 1.099699226824562 16.573203995012594 1 1 0
54 1 3.273903679472493 2.215894632052265 11.558339608737151 1 1 0
60 1 8.365678621619743 0.17915461475301425 16.337261107096825 0 1 0
61 1 5.004389472376125 3.5438224049204488 16.538969567794364 1 1 0
63 1 1.2805871507015885 3.472407852020463 10.339141090228553 1 1 0

Velocities

1 2.3862952426474506 1.8965953750553255 0.7556172341813837
6 -3.4441916077509305 1.0293092890428328 -3.324765362174309
7 -0.7050206818978721 -1.8967232146977555 0.781812388517672
16 -2.0375189134374705 0.2212403573042414 0.859889648628497
17 -0.06016741815362323 -2.6216669662731347 0.608658417265608
18 -0.6329570583925229 -3.7735848515986 5.064372398436119
19 3.0870074737586624 1.6666401412717922 -2.1288475022675075
21 -5.067568204066304 -2.8276469095534322 -4.928655694160057
25 1.830103293581548 3.662043306019365 -1.5586106717801236
28 0.1064498588713806 -0.8244912936823158 -3.144135537330421
29 2.3725609009243365 -2.6842677556604966 -1.138137325905756
30 4.3230529253400425 -3.5776072664053324 -4.1548276570531195
31 0.21040100902323647 0.6522555006109249 -3.652339615221055
32 1.2655005130992092 -4.938036198502839 6.646977708708264
34 -3.9637397607029032 2.244351308517698 0.9821345031349229
36 -0.834108451317535 -7.831459926671181 6.468672854962799
41 -3.1610505349464706 -1.4045947444418803 4.8766869085244435
43 1.2506963942773421 5.21148410331164 -2.4335689777988203
44 1.021058340534609 0.5073291673417848 -1.7525616969523286
46 -2.653077151754652 -3.287827096520225 -7.83993629427599
52 2.5351218449387924 -1.2092613835664499 -0.07178492584187625
55 -0.3264266543315121 1.3253623756245976 -1.574671600950331
56 -7.326562980531413 -5.951953951449176 0.29664351665092215
57 -1.0179061826404479 0.276722568725147 -8.11291326842443
58 1.4169706467567182 0.25253502129008276 -3.652176940834299
59 -4.487887098590231 8.307552706253272 -0.7766083721682381
4 2.847318976825738 3.3904042403828845 -3.018363689446117
5 7.697382157412548 1.4203085510098115 9.362606488739353
38 -4.334804390258428 2.3428897245763842 4.236887024951666
42 -3.324449322248 6.441938003111857 1.4768939039044622
48 -1.7354980096257357 8.91698749477809 -4.6666440492368455
8 -1.9586273859492374 -4.523811699939334 -3.6822725624028823
10 -0.26425716315978454 -1.861569459686669 3.882754760602133
33 1.0972695571109077 0.4171864139076305 -4.984470247966357
39 0.15618781138208815 0.47537784322003007 1.1956876816073825
45 0.8424322281187085 0.8629285450138104 -3.843156104343958
62 2.469172322067726 -0.06723527565009871 0.7300483047790437
2 1.0839772883385261 0.6756729670309952 -1.2347258364330969
3 -2.8801618863186422 -0.5927141549716864 -0.3604338669590596
9 -0.6454256173839606 -0.7796084047907789 4.332863524361166
11 0.4969640815417228 -5.712167159320699 1.530946551364702
12 0.34980709652352765 -2.9704352341836207 -0.7007307543845247
13 -2.8091584687057485 -4.401849091648296 -7.6945913513885955
14 -3.4888824291138083 -2.189924307513108 1.2581164724271168
15 1.2911377413720964 -2.2713669197402417 1.9062511805435927
20 -1.2602901244917244 -0.6641608114382445 4.054354350783703
22 -0.7793298551482275 -1.2122442858777496 5.79314216338782
23 4.054212105934349 1.0570528402689776 -3.063726908232581
24 -3.3713595488754042 -1.7098022537784747 -0.6806803956778327
26 0.34630729794376974 -3.3404352272499365 1.058829188592568
27 -1.094832915977263 3.755036717637844 0.08231379260977617
35 1.1537526155602342 4.893285874483905 0.593176059913663
37 -1.3857706507346077 7.403390728814893 1.974372579225866
40 -2.1892607499040357 -0.8327057608623025 7.391283912994975
47 -0.2399159410370499 1.1947467843079 -4.527805457723564
49 8.461036489426345 2.006597347130339 3.090772550004095
50 0.011500603960381536 -1.8673224927154373 0.265016166220168
51 -3.1249210770817286 -0.782641805058592 2.5421613009465385
53 7.708995292589885 1.6200405837161727 2.9292434216567633
54 -5.383745197752119 2.1866655105853123 3.204157319551945
60 8.748606335137605 -3.0748363978846194 4.485968058424326
61 6.07238208780089 0.8860244443796463 -3.073969210142483
63 -0.7047871005209491 4.483996466607664 -2.943200459126993
