LAMMPS data file via write_data, version 7 Feb 2024, timestep = 1014, units = metal

46 atoms
1 atom types

0 5.25429748201474 xlo xhi
0 2.62714874100737 ylo yhi
0 60.42442104316952 zlo zhi
0 18.390041187051594 15.76289244604422 xy xz yz

Masses

1 180.94788

Atoms # atomic

7 1 1.822951161631932 2.0733681600250793 5.20457436853467 0 1 0
15 1 4.491332858109459 3.261332022731869 4.928351366010667 0 0 0
27 1 0.317960045129698 2.1821083449767174 0.2336684683836622 1 -1 0
28 1 5.73102546347058 1.9282247379138795 2.879348142590515 0 -1 0
16 1 3.0625992520859353 0.6396583476602953 1.4639772695444366 1 2 1
31 1 6.0540188505108965 3.9633099384215487 7.924555739516132 0 -1 0
38 1 3.4847641495722694 2.0648020010112 7.348457797673954 1 -1 0
9 1 7.215290191036269 3.2861615231226406 10.272468782963317 0 1 0
24 1 5.3820793386263945 4.168050448898834 12.05205853635625 0 1 0
21 1 4.534895164410722 2.6826691767609923 9.767118746756276 1 1 0
39 1 6.577251999207272 5.031634706137526 18.92773618243592 0 0 0
20 1 6.331267942137331 5.118839536909018 15.139022189613144 1 0 0
43 1 8.989024898935364 5.466976674177093 14.396789652364749 0 0 0
6 1 9.020141447099643 5.36455767506377 20.25893147589403 0 1 0
32 1 9.710803923687756 5.438657979816623 17.267366325792928 0 1 0
40 1 8.14440757783981 6.287093358161746 22.65432405233601 0 2 0
11 1 10.29955408642535 7.67079026171673 24.176296212431925 0 0 0
14 1 10.883253110165949 6.697424901114223 21.693335571850632 0 0 0
18 1 8.82066903907369 9.101790025246165 27.22833103048359 1 -1 0
34 1 10.66235702240745 10.728493912907856 31.965274141902228 2 2 0
19 1 13.24922375326421 10.066680151629152 32.07763317891301 1 -1 0
42 1 11.743588052815525 9.659830493374065 29.75118900328478 0 -1 0
17 1 14.35223203712701 8.961424210552764 29.915908007874524 0 1 0
23 1 12.42217171138292 11.404688355346657 34.28901971622199 1 0 0
5 1 14.042311015274802 10.66012408507161 36.39352662871715 1 1 0
45 1 15.071832346497521 9.38041770076799 34.19204838888684 1 1 0
46 1 11.149672732299901 11.990284107174528 36.535843244407495 1 1 0
25 1 15.595587568661 10.694292928292805 38.71306882367387 1 2 0
44 1 12.952070338190444 11.905318703554332 38.519146344792695 1 1 0
35 1 14.579749263950127 14.356095585015535 45.98195103706196 1 -1 0
36 1 15.662512433723698 12.351745117893916 43.3450812485998 1 1 0
30 1 13.995226834568326 10.974278958873892 40.79026991092273 1 1 0
8 1 18.31011322357859 12.334030558329964 42.95536489421614 1 2 0
12 1 16.67581878250585 11.90497058996135 40.869556241732205 0 1 0
2 1 17.287493614736626 13.68399440722095 45.038671621829195 1 2 0
4 1 16.079021941437038 13.681708791919517 51.57775199452315 1 2 0
1 1 20.109799860887243 14.308428646105178 49.35122159958693 0 -1 0
13 1 17.558243617684035 15.055247126060518 49.81131855165794 1 0 0
22 1 16.56410670711093 13.358285948312812 47.54366700606316 1 2 0
33 1 17.02357588448198 16.609395388461152 54.11662374170563 1 0 0
41 1 18.694867225026847 14.00530657238438 52.014450291379475 0 0 0
37 1 19.952761096037186 15.295543318584578 54.028684982437625 0 0 0
26 1 18.28914217527173 15.305943512919919 56.092866471386905 1 0 0
3 1 20.76905323316027 16.774749287935435 56.44794845856499 0 1 0
10 1 18.75233320285165 16.629320349207045 58.31609301285061 1 1 0
29 1 21.299969782039813 15.455779879323732 58.86542795932722 1 2 0

Velocities

7 4.404695685866295 3.6862539827083802 4.313476094172656
15 -4.158229440442099 -0.4805415428838052 3.832855918273359
27 0.82916461795259 0.5015255134583471 2.105775579170652
28 -0.9748409862846001 -1.378848809682676 -0.3031183598581445
16 5.2851692376678905 -0.9552841976017046 5.570468940605778
31 -0.286734110491837 1.0297710185639266 3.984855568356517
38 -2.85554227493661 -4.120667321622517 -1.5354195592427344
9 2.905740688048498 0.5501279409010148 4.664084869114296
24 -3.169239076195727 4.8080161137892095 -4.727702340414193
21 2.53930241468532 0.4509593676739264 1.073643265234266
39 -0.37710098806523024 -0.583459891413719 -0.761853741501529
20 2.9291822044474327 -3.73102256001861 1.3366698117670277
43 3.0594719514666853 -1.267594090178867 -1.0132114538253767
6 -5.829121736464513 -2.965350347078044 -7.067587874780141
32 0.4014500352450835 1.914726648604391 -5.443765569899578
40 -4.817699475921356 4.000715767954223 2.704042153243017
11 -2.94365165640772 -0.5602802577366645 0.710847929966708
14 -0.9943501498228335 0.7539373263775278 3.512116006936419
18 -0.7441934953515135 -3.265872359119945 -0.4511306380876978
34 1.7313710625099716 1.3223784311907216 -3.2523392602145518
19 3.894744320376061 -2.6714044304576454 3.036345785218384
42 -5.469728056922849 0.09266122931852556 0.24296219051351378
17 6.318386539271524 -0.2256546512919691 -1.1082956596999993
23 5.41729230924788 -1.3346311643824413 -1.6968666376983061
5 -2.7021294103502544 -1.8848338483140106 -6.256547723639192
45 2.3469672730592084 0.7108898393292882 0.5329097514679081
46 -3.0144339329179264 1.908598908271974 -3.1288081991302903
25 2.85382140594034 2.2308745751619345 -9.605902685420464
44 4.6647355875248495 -0.060867502209885425 3.0851626620602848
35 5.064970895309762 -1.5975174703990158 4.4851761659218505
36 1.9648239905124645 -0.48667864482452844 -1.5969259264080178
30 -0.44398451939016687 -0.14517467943227963 -1.3288426340872728
8 -2.145062399253483 2.537921011452694 -3.1947545884285953
12 -5.456216123724021 3.0319626627260368 -3.575109152530135
2 -0.980926478569055 4.666315396917224 -8.822706890790332
4 -1.004223815001138 0.35862330942141746 2.5242365688985533
1 -0.439661122995797 -3.0223000159788973 -1.6977591623421435
13 -2.714671242035955 -0.9214276913392411 -3.352406457889478
22 3.9920549143627317 2.803996883865284 1.9454513048629976
33 -5.504234557031252 0.26562721834154635 1.700572741101824
41 -1.1116401306929287 -4.152216145947458 0.7793838871095006
37 5.039170917432435 -3.154007729151556 7.044750374431026
26 0.3614463472443342 0.04600611054589427 -2.072872531420351
3 0.7358633529028131 1.4062201658188866 4.654066989225271
10 -2.320678159087009 -0.5961428517002862 3.1731635567273115
29 -6.281532412718208 0.4836687803733853 4.980908932929455
