LAMMPS data file via write_data, version 7 Feb 2024, timestep = 1017, units = metal

44 atoms
1 atom types

0 5.25429748201474 xlo xhi
0 28.89863615108107 ylo yhi
0 5.25429748201474 zlo zhi
7.881446223022111 0 2.62714874100737 xy xz yz

Masses

1 180.94788

Atoms # atomic

3 1 2.627772001196571 7.241369321684508 2.516393704157554 1 0 0
23 1 0.4514236595014092 2.2448111634260517 3.189603142789801 1 0 0
24 1 1.9113640947897013 4.7475182532127365 3.3013407446673457 1 0 0
25 1 4.188273042708324 5.267749799074279 4.686165658539231 1 0 0
30 1 3.1300716635130277 2.435583402823115 2.4393315164156197 0 0 0
41 1 2.4620490104630206 4.357755807255419 0.669075833571432 0 0 0
42 1 5.013019575651983 4.325914596537151 1.6309451653517681 0 0 0
12 1 5.2740058418578855 7.2872300751739125 3.252128886922958 0 0 0
15 1 6.0164577979268685 6.421003416857005 0.3114435746203336 0 0 1
36 1 4.458055846453966 8.586993124865705 1.0203422074471193 0 0 0
11 1 11.943929838059006 29.10868190692184 0.6617039234609574 1 0 0
34 1 1.2081277304667566 1.7832212790298858 0.6631548421989831 1 1 0
1 1 7.091593091558385 8.872503705419433 0.4786300656498594 0 0 0
4 1 5.391708753533795 11.001512561030832 3.43061541628006 0 0 0
7 1 2.6227376347569886 10.510627167449494 2.4609881936826876 1 0 -1
8 1 3.289970343696469 12.71588179406046 3.8025819506169776 1 0 0
13 1 5.284068753928521 15.645306121362834 2.1430477815600004 1 0 0
16 1 3.5071138295137256 9.11893422228221 4.586358045424691 1 0 0
33 1 5.3721311106911545 10.917307992105155 0.012374022032079808 0 0 1
40 1 7.930185949118955 12.129555462563399 0.3365403822742196 0 0 0
10 1 4.935140310720475 13.027141975130073 1.6699137175946224 1 0 0
29 1 8.019790207904283 15.15751932910748 2.868440920517889 1 0 1
17 1 9.068652728042663 16.98903477902433 4.67655844152438 0 0 -1
5 1 9.783742711704633 22.746445853237795 1.0854762256846042 0 0 0
14 1 5.755423295529478 20.897815640159518 2.9518496389635955 1 0 0
19 1 9.902164613079885 20.10402420689344 0.5761815063952721 0 0 0
21 1 7.65595359461863 18.671005206063178 0.3238945653977737 0 0 0
26 1 6.8314207281562975 23.7441377952076 0.09429008675528976 1 0 1
27 1 5.794860562278006 18.311528115746118 2.236080387482009 0 0 0
31 1 7.329853677100762 16.100518228278407 0.4560142879323558 1 0 1
32 1 4.699609740503682 17.190069186383738 0.019314037601122463 1 0 1
37 1 7.393155766142849 21.228882853213893 0.7360547358065325 1 0 0
38 1 8.498317457243555 18.949974356946377 2.8651400199748043 1 0 1
39 1 6.422512693906455 16.621640029277728 4.37733047045395 1 0 0
43 1 8.163403643065594 22.15770115153579 3.1225375401570687 1 0 -1
28 1 8.77001865525578 25.542735359419844 0.19702996210044793 1 0 0
44 1 8.06780927728731 24.810152157811455 2.6614725749957104 0 0 0
2 1 9.519195821946848 28.042805366573504 0.27674623929380426 1 0 0
6 1 7.577807328997309 27.49008995410913 2.6102533335710403 1 0 0
9 1 9.882466265003288 26.39301531154675 3.8210707047965036 1 0 0
18 1 10.943029870725336 23.822307412404612 3.5677056747286677 0 0 1
20 1 11.065603054865896 25.765307133085543 1.540005671785873 0 0 0
22 1 11.873231358772966 29.45959173849638 4.470449538638869 0 0 0
35 1 9.887629872139101 28.901934728451113 2.767432049201226 1 0 0

Velocities

3 -0.10142954575087912 2.2955936585607666 -4.88064366754927
23 1.4727645700980339 1.3232707594770718 -0.33739156608053655
24 4.117140536954677 3.1012686915101417 -2.915875635466298
25 -2.0336581415509816 -0.3631439803605757 0.7047758634585269
30 -2.842627762586729 -0.8739654864254435 -2.956541628129973
41 -2.3675056285317373 -0.40912665388713043 -3.7630787866182938
42 1.9270825150733546 2.075986027230529 -0.7893169410119714
12 2.7190070858866457 1.97815810417401 0.7689794413223368
15 -1.3460034177949904 3.7286948938484494 1.3820080171894378
36 -0.028169952888115506 3.3869102920335696 1.967404884546428
11 -2.1600439510113314 0.06777299457409418 -0.5966896292920407
34 6.128855345730202 3.143203158892421 4.479021755323748
1 -1.9019068369668082 -2.480392735531125 2.958897601974355
4 0.7744997356817421 -2.581986601032649 0.23077077171364752
7 -2.9088127745180263 -2.2433005848848877 -0.8554900203198893
8 -0.8269619539315936 -6.101031755498392 -0.25679919369016097
13 3.2368011364224234 -4.272492238307987 -0.6110794776243637
16 1.8784562777671705 -1.3190875202754946 -4.365484266297792
33 -3.351314494667829 -2.988580261509177 -0.08859959485840345
40 1.8228836079459434 2.522739877374661 -0.7472909499117651
10 0.3757817114648093 -0.24075862927848699 6.901691663693459
29 0.03159373126522847 2.709790918772329 3.905463931963832
17 4.289655060768704 -4.172027415689447 1.3166689821861886
5 3.178475933305278 1.1660490879570045 -2.76331351785036
14 2.266372523237598 -1.7664184532154092 -1.422222353974563
19 -0.5447203754744894 -0.724075279858567 0.1351045862153056
21 0.8623648292157694 3.0540661031357645 -4.875430600915667
26 -3.6695858252922626 4.310499584385185 4.416248834428207
27 -1.9315751629650417 1.6762517576581668 -0.4505625966233245
31 0.3689936689075038 0.34743102628804995 -2.36019642183656
32 -1.9459561211309317 4.7571312880251675 6.135513900389139
37 -0.586349469529751 1.1784206227746359 -4.572365891500887
38 -4.3678123921285525 -1.6070962803420263 -3.112671552727713
39 0.772502038121906 -0.4031637886829624 1.4680367302111594
43 0.5206089652165342 -1.803427478142121 -2.452224293466215
28 -0.5643419930282458 3.174232927748954 -0.24497992274882335
44 -4.1626959218416815 0.11001524161013766 -3.6587443960104293
2 2.0869775646087594 4.134882133641469 1.6017561435219883
6 -6.603670855235487 0.9079079978377073 5.049630477702173
9 -2.089203212695939 0.6925986085252043 0.6173639681308084
18 -1.5208482809820585 -1.5507887576656834 3.2543367814834894
20 3.3248160116672048 -12.634204057025961 -0.8076642989314055
22 3.6875987243824664 -3.7004036442325017 -0.2653269630370832
35 2.0119624967815097 0.39259584581051654 2.856309831019541
