mass 1 180.947880
pair_style hybrid/overlay soft 2.720 mliap model mliappy LATER descriptor ace coupling_coefficients.yace
Loading python model deferred.
pair_coeff * * soft 1.000000
pair_coeff * * mliap   Ta

thermo 10
velocity all create 1. 4928459 dist gaussian
Loading python model complete.
dump    r7 all xyz 1 dyn_7.xyz
velocity all create 800.0 4928459 loop geom
fix  a1  all nve
run 1000
Neighbor list info ...
  update: every = 1 steps, delay = 0 steps, check = yes
  max neighbors/atom: 2000, page size: 100000
  master list distance cutoff = 13.209389
  ghost atom cutoff = 13.209389
  binsize = 6.6046944, bins = 10 9 12
  2 neighbor lists, perpetual/occasional/extra = 2 0 0
  (1) pair soft, perpetual, half/full trim from (2)
      attributes: half, newton on, cut 4.720000000000001
      pair build: halffull/trim/newton/tri
      stencil: none
      bin: none
  (2) pair mliap, perpetual
      attributes: full, newton on
      pair build: full/bin/atomonly
      stencil: full/bin/3d
      bin: standard
Per MPI rank memory allocation (min/avg/max) = 8.913 | 8.913 | 8.913 Mbytes
   Step          Temp          E_pair         E_mol          TotEng         Press     
         0   800            22.630853      0              28.525115      67529.083    
        10   812.06177      22.544614      0              28.527745      67590.86     
        20   872.76079      22.084437      0              28.514789      67695.042    
        30   976.38781      21.313981      0              28.507839      68029.852    
        40   1115.3116      20.284449      0              28.501873      68487.807    
        50   1280.2886      19.034708      0              28.467654      68501.354    
        60   1459.8642      17.726085      0              28.482114      68112.774    
        70   1642.5281      16.373275      0              28.475141      67328.69     
        80   1815.863       15.138753      0              28.51772       66538.048    
        90   1964.7259      14.041122      0              28.516885      65431.416    
       100   2082.8824      13.169027      0              28.515346      63717.934    
       110   2169.7847      12.553521      0              28.540122      61855.205    
       120   2231.8378      11.881092      0              28.32489       60295.631    
       130   2277.7012      11.550351      0              28.332062      59278.035    
       140   2312.4404      11.292025      0              28.329689      58333.805    
       150   2337.8281      11.114451      0              28.339167      57740.124    
       160   2354.2959      10.987407      0              28.333455      57188.389    
       170   2359.491       10.965131      0              28.349456      57134.307    
       180   2356.7074      10.986794      0              28.350609      57187.632    
       190   2347.7155      11.04643       0              28.343995      57674.472    
       200   2334.3369      11.109209      0              28.308202      57765.463    
       210   2317.8656      11.3342        0              28.411835      58035.719    
       220   2295.8635      11.48675       0              28.402277      58612.187    
       230   2265.7033      11.730886      0              28.424198      58783.143    
       240   2231.8664      11.940137      0              28.384145      58476.183    
       250   2198.3114      12.158651      0              28.355432      58432.211    
       260   2166.2829      12.387366      0              28.348166      58205.413    
       270   2136.7461      12.633347      0              28.376525      58183.361    
       280   2113.7071      12.817362      0              28.390793      58036.386    
       290   2101.274       12.871814      0              28.35364       57453.261    
       300   2099.4221      12.902522      0              28.370703      56862.102    
       310   2105.1965      12.938763      0              28.449489      56625.438    
       320   2120.7427      12.826007      0              28.451275      56692.669    
       330   2143.16        12.696591      0              28.487025      56732.181    
       340   2167.4788      12.562444      0              28.532056      57132.543    
       350   2193.2779      12.372166      0              28.531861      57039.861    
       360   2219.3131      12.17301       0              28.524528      57190.955    
       370   2245.9595      11.950742      0              28.498586      57359.185    
       380   2272.4824      11.772185      0              28.515445      57781.952    
       390   2297.5581      11.610229      0              28.538242      58141.834    
       400   2318.0719      11.462026      0              28.541182      58538.878    
       410   2330.6285      11.103539      0              28.275209      58361.7      
       420   2333.0388      11.102848      0              28.292277      58259.015    
       430   2330.9164      11.141672      0              28.315464      58218.099    
       440   2327.5205      11.162205      0              28.310976      58052.67     
       450   2328.0375      11.169494      0              28.322075      57953.075    
       460   2334.4977      11.122394      0              28.322571      58001.612    
       470   2344.3925      11.025701      0              28.298782      57660.311    
       480   2355.1812      10.930089      0              28.282659      57088.764    
       490   2365.1858      10.868769      0              28.295052      56413.15     
       500   2371.4491      10.840406      0              28.312835      55883.562    
       510   2370.6798      10.717243      0              28.184005      54747.071    
       520   2359.751       10.810561      0              28.196802      53996.688    
       530   2339.5543      10.948695      0              28.186129      53745.853    
       540   2312.7013      11.12229       0              28.161876      54139.317    
       550   2286.6763      11.310038      0              28.157877      54544.278    
       560   2264.6457      11.456745      0              28.142266      54694.544    
       570   2246.0682      11.553913      0              28.102558      54839.718    
       580   2233.028       11.602959      0              28.055526      55337.733    
       590   2223.1643      11.671765      0              28.051658      56158.567    
       600   2213.9917      11.729447      0              28.041758      57069.651    
       610   2203.7223      11.739495      0              27.976142      57964.351    
       620   2192.3089      11.813442      0              27.965998      58961.287    
       630   2176.2167      11.938612      0              27.972603      60268.293    
       640   2152.8999      12.123695      0              27.985891      61481.26     
       650   2125.635       12.317131      0              27.978445      62029.016    
       660   2096.9028      12.55849       0              28.008109      62369.859    
       670   2069.1341      12.786462      0              28.031487      62423.297    
       680   2042.4818      12.97528       0              28.023935      62169.436    
       690   2020.7973      13.103952      0              27.99284       61750.885    
       700   2008.2792      13.197115      0              27.993771      61059.304    
       710   2007.541       13.207281      0              27.998499      60465.642    
       720   2016.7806      13.113047      0              27.97234       59752.105    
       730   2031.3818      13.003047      0              27.969919      58865.192    
       740   2048.3015      12.871549      0              27.963083      57706.921    
       750   2065.3002      12.759706      0              27.976483      56639.272    
       760   2084.1496      12.637981      0              27.993638      55826.259    
       770   2106.4595      12.477448      0              27.997479      55256.704    
       780   2130.1145      12.312745      0              28.007062      54794.057    
       790   2153.7194      12.150983      0              28.019218      54557.842    
       800   2174.6454      12.025241      0              28.047655      54471.774    
       810   2190.3879      11.636806      0              27.775208      53710.608    
       820   2200.6467      11.564591      0              27.778577      53734.142    
       830   2201.7963      11.59995       0              27.822407      54218.791    
       840   2193.1303      11.623229      0              27.781837      54602.901    
       850   2176.1704      11.80255       0              27.836199      54986.916    
       860   2154.355       11.962253      0              27.835171      54851.513    
       870   2133.2184      12.092979      0              27.810165      54510.378    
       880   2117.9809      12.225267      0              27.830187      54155.763    
       890   2110.9805      12.247417      0              27.800759      53728.599    
       900   2114.6821      12.19418       0              27.774795      53578.033    
       910   2128.7048      12.033988      0              27.717919      53585.433    
       920   2150.8578      11.82496       0              27.672111      53535.077    
       930   2180.7386      11.606642      0              27.673949      53532.665    
       940   2212.9537      11.393154      0              27.697817      54046.905    
       950   2243.2702      11.167449      0              27.695478      55028.032    
       960   2272.5419      10.934992      0              27.678691      56043.237    
       970   2299.3043      10.747337      0              27.688216      56699.959    
       980   2322.04        10.593936      0              27.702328      56698.415    
       990   2339.5982      10.4587        0              27.696458      56795.095    
      1000   2349.611       10.391201      0              27.702731      57288.459    
Loop time of 23.35 on 1 procs for 1000 steps with 58 atoms

Performance: 3.700 ns/day, 6.486 hours/ns, 42.826 timesteps/s, 2.484 katom-step/s
99.7% CPU use with 1 MPI tasks x 1 OpenMP threads

MPI task timing breakdown:
Section |  min time  |  avg time  |  max time  |%varavg| %total
---------------------------------------------------------------
Pair    | 23.222     | 23.222     | 23.222     |   0.0 | 99.45
Neigh   | 0.0065319  | 0.0065319  | 0.0065319  |   0.0 |  0.03
Comm    | 0.029556   | 0.029556   | 0.029556   |   0.0 |  0.13
Output  | 0.086727   | 0.086727   | 0.086727   |   0.0 |  0.37
Modify  | 0.0011627  | 0.0011627  | 0.0011627  |   0.0 |  0.00
Other   |            | 0.003743   |            |       |  0.02

Nlocal:             58 ave          58 max          58 min
Histogram: 1 0 0 0 0 0 0 0 0 0
Nghost:           7573 ave        7573 max        7573 min
Histogram: 1 0 0 0 0 0 0 0 0 0
Neighs:            659 ave         659 max         659 min
Histogram: 1 0 0 0 0 0 0 0 0 0
FullNghs:        31182 ave       31182 max       31182 min
Histogram: 1 0 0 0 0 0 0 0 0 0

Total # of neighbors = 31182
Ave neighs/atom = 537.62069
Neighbor list builds = 9
Dangerous builds = 0
unfix  a1
min_style  cg
min_modify  dmax 0.5 line quadratic
dump    a7 all xyz 1 min_7.xyz
minimize 1e-12 1e-12 10000 100000
Per MPI rank memory allocation (min/avg/max) = 11.07 | 11.07 | 11.07 Mbytes
   Step          Temp          E_pair         E_mol          TotEng         Press     
      1000   2349.611       10.298331      0              27.609862      57067.085    
      1008   2349.611       2.700531       0              20.012061      26057.66     
Loop time of 1.50083 on 1 procs for 8 steps with 58 atoms

99.7% CPU use with 1 MPI tasks x 1 OpenMP threads

Minimization stats:
  Stopping criterion = linesearch alpha is zero
  Energy initial, next-to-last, final = 
      10.2983314361242   2.52699346926612    2.7005309620182
  Force two-norm initial, final = 5.6199262 0.72390897
  Force max component initial, final = 1.3103938 0.2106739
  Final line search alpha, max atom move = 2.9802322e-08 6.2785716e-09
  Iterations, force evaluations = 8 65

MPI task timing breakdown:
Section |  min time  |  avg time  |  max time  |%varavg| %total
---------------------------------------------------------------
Pair    | 1.4957     | 1.4957     | 1.4957     |   0.0 | 99.66
Neigh   | 0.001404   | 0.001404   | 0.001404   |   0.0 |  0.09
Comm    | 0.002081   | 0.002081   | 0.002081   |   0.0 |  0.14
Output  | 0.0010545  | 0.0010545  | 0.0010545  |   0.0 |  0.07
Modify  | 0          | 0          | 0          |   0.0 |  0.00
Other   |            | 0.000605   |            |       |  0.04

Nlocal:             58 ave          58 max          58 min
Histogram: 1 0 0 0 0 0 0 0 0 0
Nghost:           7439 ave        7439 max        7439 min
Histogram: 1 0 0 0 0 0 0 0 0 0
Neighs:            650 ave         650 max         650 min
Histogram: 1 0 0 0 0 0 0 0 0 0
FullNghs:        31128 ave       31128 max       31128 min
Histogram: 1 0 0 0 0 0 0 0 0 0

Total # of neighbors = 31128
Ave neighs/atom = 536.68966
Neighbor list builds = 2
Dangerous builds = 0
write_data ./StructureDump/sample.7.dat 
System init for write_data ...
variable etot equal etotal
variable ptot equal press
variable pairp equal epair
variable numat equal atoms
run 0
WARNING: No fixes with time integration, atoms won't move (src/verlet.cpp:60)
Per MPI rank memory allocation (min/avg/max) = 10.95 | 10.95 | 10.95 Mbytes
   Step          Temp          E_pair         E_mol          TotEng         Press     
      1008   2349.611       2.700531       0              20.012061      25843.878    
Loop time of 1.918e-05 on 1 procs for 0 steps with 58 atoms

78.2% CPU use with 1 MPI tasks x 1 OpenMP threads

MPI task timing breakdown:
Section |  min time  |  avg time  |  max time  |%varavg| %total
---------------------------------------------------------------
Pair    | 0          | 0          | 0          |   0.0 |  0.00
Neigh   | 0          | 0          | 0          |   0.0 |  0.00
Comm    | 0          | 0          | 0          |   0.0 |  0.00
Output  | 0          | 0          | 0          |   0.0 |  0.00
Modify  | 0          | 0          | 0          |   0.0 |  0.00
Other   |            | 1.918e-05  |            |       |100.00

Nlocal:             58 ave          58 max          58 min
Histogram: 1 0 0 0 0 0 0 0 0 0
Nghost:           7495 ave        7495 max        7495 min
Histogram: 1 0 0 0 0 0 0 0 0 0
Neighs:            653 ave         653 max         653 min
Histogram: 1 0 0 0 0 0 0 0 0 0
FullNghs:        31076 ave       31076 max       31076 min
Histogram: 1 0 0 0 0 0 0 0 0 0

Total # of neighbors = 31076
Ave neighs/atom = 535.7931
Neighbor list builds = 0
Dangerous builds = 0
print "${etot} ${pairp} ${ptot} ${numat} " append Summary.dat screen no
Total wall time: 0:00:25
