mass 1 180.947880
pair_style hybrid/overlay soft 2.720 mliap model mliappy LATER descriptor ace coupling_coefficients.yace
Loading python model deferred.
pair_coeff * * soft 1.000000
pair_coeff * * mliap   Ta

thermo 10
velocity all create 1. 4928459 dist gaussian
Loading python model complete.
dump    r2 all xyz 1 dyn_2.xyz
velocity all create 800.0 4928459 loop geom
fix  a1  all nve
run 1000
Neighbor list info ...
  update: every = 1 steps, delay = 0 steps, check = yes
  max neighbors/atom: 2000, page size: 100000
  master list distance cutoff = 13.209389
  ghost atom cutoff = 13.209389
  binsize = 6.6046944, bins = 2 5 17
  2 neighbor lists, perpetual/occasional/extra = 2 0 0
  (1) pair soft, perpetual, half/full trim from (2)
      attributes: half, newton on, cut 4.720000000000001
      pair build: halffull/trim/newton/tri
      stencil: none
      bin: none
  (2) pair mliap, perpetual
      attributes: full, newton on
      pair build: full/bin/atomonly
      stencil: full/bin/3d
      bin: standard
Per MPI rank memory allocation (min/avg/max) = 6.616 | 6.616 | 6.616 Mbytes
   Step          Temp          E_pair         E_mol          TotEng         Press     
         0   800            13.383522      0              17.519847      68178.637    
        10   833.46696      13.221175      0              17.530538      68105.876    
        20   907.13536      12.797942      0              17.4882        67513.887    
        30   1015.6719      12.266096      0              17.517532      67085.282    
        40   1152.7275      11.557478      0              17.517548      65947.695    
        50   1309.7456      10.721417      0              17.493333      64563.664    
        60   1481.1337      9.8514487      0              17.509511      63430.848    
        70   1650.6793      8.9279929      0              17.462675      61703.584    
        80   1809.5405      8.1111321      0              17.467191      59541.303    
        90   1950.1064      7.4133675      0              17.496209      57230.091    
       100   2066.8957      6.8144496      0              17.501139      54158.061    
       110   2159.1545      6.2775206      0              17.441225      51531.337    
       120   2222.2563      5.932505       0              17.422472      50195.989    
       130   2251.1666      5.7827467      0              17.422192      49110.813    
       140   2242.0853      5.5896476      0              17.182139      46661.268    
       150   2205.2604      5.6858737      0              17.087965      45759.051    
       160   2154.1596      6.0376984      0              17.175578      45336.511    
       170   2091.3201      6.38689        0              17.199864      44359.705    
       180   2020.0921      6.646388       0              17.091084      43612.506    
       190   1951.468       7.0477403      0              17.137622      43817.734    
       200   1885.6615      7.3822514      0              17.131886      43969.563    
       210   1821.6281      7.6747743      0              17.093331      44336.538    
       220   1762.8638      8.0083229      0              17.123044      45189.128    
       230   1718.5788      8.0954053      0              16.981155      45788.049    
       240   1692.3196      8.3119344      0              17.061913      46280.267    
       250   1681.8646      8.3526108      0              17.048533      46395.281    
       260   1683.574       8.3812675      0              17.086028      46158.896    
       270   1695.1385      8.4092777      0              17.173832      46139.719    
       280   1716.7882      8.295358       0              17.171849      45750.588    
       290   1752.5346      8.1388814      0              17.200197      45283.053    
       300   1811.1708      7.8593664      0              17.223854      44849.837    
       310   1900.2007      7.440018       0              17.264827      44069.835    
       320   1985.2261      6.9959295      0              17.260354      42883.519    
       330   2023.7597      6.6775781      0              17.141237      42920.731    
       340   2041.5484      6.6433333      0              17.198967      43872.012    
       350   2060.2113      6.573838       0              17.225966      44745.129    
       360   2082.1378      6.4332581      0              17.198756      45761.606    
       370   2104.5195      6.3579121      0              17.239132      46847.846    
       380   2124.626       6.3034657      0              17.288644      47789.192    
       390   2137.5327      6.2915806      0              17.343492      48810.807    
       400   2140.1352      6.4318871      0              17.497255      49894.402    
       410   2130.0346      6.4535363      0              17.46668       49812.887    
       420   2103.6254      6.5996299      0              17.476227      49906.915    
       430   2059.6937      6.7225011      0              17.371953      49971.624    
       440   2004.1737      7.0105288      0              17.37292       50168.121    
       450   1946.8128      7.3071413      0              17.372953      50713.546    
       460   1900.1213      7.5643685      0              17.388767      51330.121    
       470   1867.9849      7.759851       0              17.418091      51726.882    
       480   1851.1932      7.8417607      0              17.413181      51807.634    
       490   1851.4046      7.8386775      0              17.411191      52214.232    
       500   1868.8811      7.7446242      0              17.407498      52238.841    
       510   1902.0621      7.5445831      0              17.379016      51457.288    
       520   1948.8389      7.272963       0              17.349251      51079.202    
       530   2002.168       6.9036893      0              17.25571       50357.237    
       540   2055.377       6.6833791      0              17.310513      50275.639    
       550   2103.0545      6.3955672      0              17.269212      49624.725    
       560   2140.4624      6.1554768      0              17.222536      49475.169    
       570   2161.5786      6.0627127      0              17.238951      49886.058    
       580   2162.7102      6.0669793      0              17.249069      51004.215    
       590   2144.2963      6.1597132      0              17.246595      51849.735    
       600   2110.5393      6.2263403      0              17.138685      52986.862    
       610   2058.0817      6.5083626      0              17.14948       53507.2      
       620   1999.9224      6.7845717      0              17.124982      53372.015    
       630   1948.2282      7.0525445      0              17.125675      53688.136    
       640   1909.0385      7.2456253      0              17.116129      53704.285    
       650   1885.8454      7.3505021      0              17.101088      53730.379    
       660   1882.2673      7.3651658      0              17.097252      53836.884    
       670   1900.4384      7.229369       0              17.055407      53850.797    
       680   1936.9448      6.9911207      0              17.005912      54037.543    
       690   1985.8634      6.9589768      0              17.226696      55467.41     
       700   2042.8792      6.7217071      0              17.284221      55840.797    
       710   2098.8928      6.3677986      0              17.219926      55461.658    
       720   2143.6134      6.1198054      0              17.203157      55308.089    
       730   2167.1047      6.0473277      0              17.252139      55065.834    
       740   2166.5205      6.0492341      0              17.251024      54659.305    
       750   2140.0127      6.2655953      0              17.330329      54816.325    
       760   2090.5457      6.4727872      0              17.281757      54271.6      
       770   2022.4759      7.2379701      0              17.694991      55621.918    
       780   1940.6037      7.649459       0              17.683167      55291.123    
       790   1854.5182      8.0852257      0              17.673837      54970.863    
       800   1776.6567      8.4376056      0              17.623642      54213.523    
       810   1712.8277      8.7615756      0              17.61759       53433.128    
       820   1666.784       8.9494381      0              17.567388      52296.375    
       830   1641.208       9.111735       0              17.597446      51900.732    
       840   1637.9571      9.1427673      0              17.61167       51430.998    
       850   1658.6167      8.9999331      0              17.575655      50748.744    
       860   1703.0081      8.7631522      0              17.568395      50152.368    
       870   1768.8491      8.3733377      0              17.519005      49248.693    
       880   1851.1662      7.9360901      0              17.507371      48711.118    
       890   1944.8793      7.4757316      0              17.531547      48768.631    
       900   2047.3342      6.9059439      0              17.491493      48687.661    
       910   2152.7895      6.3433992      0              17.474194      48657.964    
       920   2254.2812      5.82021        0              17.475758      48601.337    
       930   2344.04        5.3640155      0              17.483653      48233.075    
       940   2416.7402      4.9909292      0              17.486457      47950.23     
       950   2468.5265      4.7390203      0              17.502304      47986.208    
       960   2493.2437      4.5765105      0              17.467592      47625.014    
       970   2486.1566      4.6431862      0              17.497624      47012.74     
       980   2449.6529      4.831371       0              17.49707       46239.455    
       990   2396.2228      5.1042843      0              17.493728      46389.613    
      1000   2340.131       5.4201918      0              17.519619      46922.176    
Loop time of 17.5757 on 1 procs for 1000 steps with 41 atoms

Performance: 4.916 ns/day, 4.882 hours/ns, 56.897 timesteps/s, 2.333 katom-step/s
99.7% CPU use with 1 MPI tasks x 1 OpenMP threads

MPI task timing breakdown:
Section |  min time  |  avg time  |  max time  |%varavg| %total
---------------------------------------------------------------
Pair    | 17.482     | 17.482     | 17.482     |   0.0 | 99.46
Neigh   | 0.0052047  | 0.0052047  | 0.0052047  |   0.0 |  0.03
Comm    | 0.026062   | 0.026062   | 0.026062   |   0.0 |  0.15
Output  | 0.058343   | 0.058343   | 0.058343   |   0.0 |  0.33
Modify  | 0.0010654  | 0.0010654  | 0.0010654  |   0.0 |  0.01
Other   |            | 0.003424   |            |       |  0.02

Nlocal:             41 ave          41 max          41 min
Histogram: 1 0 0 0 0 0 0 0 0 0
Nghost:           6760 ave        6760 max        6760 min
Histogram: 1 0 0 0 0 0 0 0 0 0
Neighs:            494 ave         494 max         494 min
Histogram: 1 0 0 0 0 0 0 0 0 0
FullNghs:        22370 ave       22370 max       22370 min
Histogram: 1 0 0 0 0 0 0 0 0 0

Total # of neighbors = 22370
Ave neighs/atom = 545.60976
Neighbor list builds = 10
Dangerous builds = 0
unfix  a1
min_style  cg
min_modify  dmax 0.5 line quadratic
dump    a2 all xyz 1 min_2.xyz
minimize 1e-12 1e-12 10000 100000
Per MPI rank memory allocation (min/avg/max) = 8.759 | 8.759 | 8.759 Mbytes
   Step          Temp          E_pair         E_mol          TotEng         Press     
      1000   2340.131       5.2733219      0              17.372749      47112.537    
      1010   2340.131       2.1582389      0              14.257666      30855.263    
Loop time of 1.25585 on 1 procs for 10 steps with 41 atoms

99.8% CPU use with 1 MPI tasks x 1 OpenMP threads

Minimization stats:
  Stopping criterion = linesearch alpha is zero
  Energy initial, next-to-last, final = 
      5.27332189455046   2.15823889325941   2.15823889325941
  Force two-norm initial, final = 3.5230797 0.49124602
  Force max component initial, final = 1.2436057 0.22729689
  Final line search alpha, max atom move = 2.9802322e-08 6.7739753e-09
  Iterations, force evaluations = 10 71

MPI task timing breakdown:
Section |  min time  |  avg time  |  max time  |%varavg| %total
---------------------------------------------------------------
Pair    | 1.2522     | 1.2522     | 1.2522     |   0.0 | 99.71
Neigh   | 0.00050388 | 0.00050388 | 0.00050388 |   0.0 |  0.04
Comm    | 0.0017208  | 0.0017208  | 0.0017208  |   0.0 |  0.14
Output  | 0.00087275 | 0.00087275 | 0.00087275 |   0.0 |  0.07
Modify  | 0          | 0          | 0          |   0.0 |  0.00
Other   |            | 0.0005313  |            |       |  0.04

Nlocal:             41 ave          41 max          41 min
Histogram: 1 0 0 0 0 0 0 0 0 0
Nghost:           6616 ave        6616 max        6616 min
Histogram: 1 0 0 0 0 0 0 0 0 0
Neighs:            478 ave         478 max         478 min
Histogram: 1 0 0 0 0 0 0 0 0 0
FullNghs:        22334 ave       22334 max       22334 min
Histogram: 1 0 0 0 0 0 0 0 0 0

Total # of neighbors = 22334
Ave neighs/atom = 544.73171
Neighbor list builds = 1
Dangerous builds = 0
write_data ./StructureDump/sample.2.dat 
System init for write_data ...
variable etot equal etotal
variable ptot equal press
variable pairp equal epair
variable numat equal atoms
run 0
WARNING: No fixes with time integration, atoms won't move (src/verlet.cpp:60)
Per MPI rank memory allocation (min/avg/max) = 8.637 | 8.637 | 8.637 Mbytes
   Step          Temp          E_pair         E_mol          TotEng         Press     
      1010   2340.131       2.1582389      0              14.257666      30838.432    
Loop time of 2.0484e-05 on 1 procs for 0 steps with 41 atoms

112.3% CPU use with 1 MPI tasks x 1 OpenMP threads

MPI task timing breakdown:
Section |  min time  |  avg time  |  max time  |%varavg| %total
---------------------------------------------------------------
Pair    | 0          | 0          | 0          |   0.0 |  0.00
Neigh   | 0          | 0          | 0          |   0.0 |  0.00
Comm    | 0          | 0          | 0          |   0.0 |  0.00
Output  | 0          | 0          | 0          |   0.0 |  0.00
Modify  | 0          | 0          | 0          |   0.0 |  0.00
Other   |            | 2.048e-05  |            |       |100.00

Nlocal:             41 ave          41 max          41 min
Histogram: 1 0 0 0 0 0 0 0 0 0
Nghost:           6616 ave        6616 max        6616 min
Histogram: 1 0 0 0 0 0 0 0 0 0
Neighs:            500 ave         500 max         500 min
Histogram: 1 0 0 0 0 0 0 0 0 0
FullNghs:        22284 ave       22284 max       22284 min
Histogram: 1 0 0 0 0 0 0 0 0 0

Total # of neighbors = 22284
Ave neighs/atom = 543.5122
Neighbor list builds = 0
Dangerous builds = 0
print "${etot} ${pairp} ${ptot} ${numat} " append Summary.dat screen no
Total wall time: 0:00:19
