mass 1 180.947880
pair_style hybrid/overlay soft 2.720 mliap model mliappy LATER descriptor ace coupling_coefficients.yace
Loading python model deferred.
pair_coeff * * soft 1.000000
pair_coeff * * mliap   Ta

thermo 10
velocity all create 1. 4928459 dist gaussian
Loading python model complete.
dump    r6 all xyz 1 dyn_6.xyz
velocity all create 800.0 4928459 loop geom
fix  a1  all nve
run 1000
Neighbor list info ...
  update: every = 1 steps, delay = 0 steps, check = yes
  max neighbors/atom: 2000, page size: 100000
  master list distance cutoff = 13.209389
  ghost atom cutoff = 13.209389
  binsize = 6.6046944, bins = 3 2 4
  2 neighbor lists, perpetual/occasional/extra = 2 0 0
  (1) pair soft, perpetual, half/full trim from (2)
      attributes: half, newton on, cut 4.720000000000001
      pair build: halffull/trim/newton/tri
      stencil: none
      bin: none
  (2) pair mliap, perpetual
      attributes: full, newton on
      pair build: full/bin/atomonly
      stencil: full/bin/3d
      bin: standard
Per MPI rank memory allocation (min/avg/max) = 8.196 | 8.196 | 8.196 Mbytes
   Step          Temp          E_pair         E_mol          TotEng         Press     
         0   800            26.184681      0              31.665312      71342.07     
        10   820.215        26.071361      0              31.69048       71009.518    
        20   885.20342      25.609256      0              31.673596      70730.986    
        30   992.6912       24.869046      0              31.669763      70496.225    
        40   1136.5291      23.861189      0              31.647309      70385.017    
        50   1309.4215      22.673123      0              31.643692      70384.865    
        60   1503.2561      21.345436      0              31.643924      70339.251    
        70   1708.8198      19.994541      0              31.701302      69888.361    
        80   1915.5341      18.577981      0              31.700898      68943.229    
        90   2111.2776      17.245773      0              31.709687      67852.419    
       100   2284.7014      16.041496      0              31.6935        67052.362    
       110   2430.1411      15.044674      0              31.693055      66423.325    
       120   2546.7776      14.251469      0              31.698902      65601.511    
       130   2628.9901      13.798764      0              31.809417      65159.785    
       140   2678.6558      13.417797      0              31.768699      64192.293    
       150   2696.4236      13.297736      0              31.770362      62990.275    
       160   2687.9303      13.346353      0              31.760793      61323.138    
       170   2665.2772      13.494674      0              31.753923      60170.751    
       180   2640.0538      13.683928      0              31.770377      59556.463    
       190   2617.2732      13.848607      0              31.77899       59727.753    
       200   2598.8435      13.992285      0              31.79641       60166.25     
       210   2585.389       14.038996      0              31.750947      60256.756    
       220   2577.6039      14.03481       0              31.693427      60347.609    
       230   2574.4551      14.028973      0              31.666018      60714.364    
       240   2576.0099      14.001642      0              31.649339      61149.885    
       250   2581.8719      13.989578      0              31.677435      61580.093    
       260   2590.1044      13.932679      0              31.676935      61981.399    
       270   2594.4877      13.907985      0              31.682269      62101.27     
       280   2597.5343      13.875384      0              31.67054       62309.994    
       290   2602.4688      13.84717       0              31.676131      62584.876    
       300   2608.3122      13.791442      0              31.660436      62876.708    
       310   2611.8656      13.782477      0              31.675814      63139.797    
       320   2612.9323      13.861468      0              31.762112      63919.395    
       330   2610.1397      13.844997      0              31.72651       63640.983    
       340   2605.0153      13.912508      0              31.758915      63536.707    
       350   2594.7104      13.991955      0              31.767765      63486.457    
       360   2578.2451      14.09369       0              31.7567        62749.255    
       370   2556.5146      14.245773      0              31.759912      62385.758    
       380   2530.7192      14.454213      0              31.791633      62128.848    
       390   2501.6486      14.649437      0              31.787701      61647.329    
       400   2473.0694      14.854934      0              31.797408      61018.406    
       410   2450.2915      15.018492      0              31.804919      60431.281    
       420   2436.2037      14.942707      0              31.632621      60182.953    
       430   2428.5614      15.007564      0              31.645122      60350.607    
       440   2429.0916      15.029286      0              31.670477      60631.557    
       450   2437.2081      15.00491       0              31.701704      61278.424    
       460   2451.059       14.934904      0              31.726589      61614.359    
       470   2465.8861      14.840033      0              31.733295      61987.37     
       480   2479.4992      14.735743      0              31.722266      62506.832    
       490   2491.0284      14.651844      0              31.717351      62613.007    
       500   2497.9524      14.65863       0              31.771571      62705.614    
       510   2498.6534      14.574741      0              31.692485      62099.498    
       520   2493.2145      14.648184      0              31.728667      62080.719    
       530   2481.5709      14.710641      0              31.711356      61615.746    
       540   2461.7962      14.870167      0              31.73541       61383.195    
       550   2436.1103      15.003339      0              31.692613      60696.98     
       560   2413.0346      15.167966      0              31.699154      60653.815    
       570   2401.4353      15.27899       0              31.730713      61141.123    
       580   2404.6187      15.240135      0              31.713667      61338.887    
       590   2422.9959      15.095269      0              31.694699      61304.934    
       600   2451.4211      15.078726      0              31.872892      61798.092    
       610   2483.165       14.877333      0              31.888969      62153.773    
       620   2511.9845      14.595278      0              31.80435       62312.833    
       630   2532.1308      14.472184      0              31.819275      62497.469    
       640   2540.6324      14.405713      0              31.811047      62120.164    
       650   2537.1164      14.400215      0              31.78146       61361.902    
       660   2521.7659      14.569237      0              31.84532       60280.79     
       670   2498.5218      14.729487      0              31.846329      59107.732    
       680   2470.8116      14.881701      0              31.808707      57725.427    
       690   2442.8662      15.089417      0              31.824974      56866.251    
       700   2421.5227      15.359186      0              31.948525      56285.423    
       710   2410.6213      15.361265      0              31.87592       56012.243    
       720   2411.4483      15.388546      0              31.908866      56440.208    
       730   2419.105       15.333452      0              31.906227      57373.687    
       740   2432.3921      15.220408      0              31.88421       58648.56     
       750   2449.224       15.104731      0              31.883845      60168.097    
       760   2460.6042      15.043679      0              31.900756      61643.105    
       770   2462.6535      15.040169      0              31.911285      62570.661    
       780   2454.3843      15.119943      0              31.934409      62863.967    
       790   2438.1758      15.229951      0              31.933375      62871.852    
       800   2422.9701      15.441004      0              32.040258      63420.554    
       810   2410.4712      15.495119      0              32.008745      63527.065    
       820   2401.5227      15.55198       0              32.004302      64060.215    
       830   2393.8968      15.618205      0              32.018284      64682.976    
       840   2383.8183      15.689527      0              32.02056       65106.189    
       850   2368.8633      15.810636      0              32.039216      65320.186    
       860   2346.4835      15.94899       0              32.02425       65159.605    
       870   2320.5554      16.116359      0              32.013991      64942.595    
       880   2296.8394      16.237872      0              31.973031      64297.693    
       890   2277.1388      16.368993      0              31.969187      63439.184    
       900   2263.3099      16.467966      0              31.973422      62823.314    
       910   2264.2471      16.43705       0              31.948926      62337.904    
       920   2281.054       16.369958      0              31.996975      62210.051    
       930   2312.1471      16.175375      0              32.015404      62273.327    
       940   2354.9999      15.85018       0              31.983784      62674.036    
       950   2403.748       15.530029      0              31.997596      63367.541    
       960   2452.515       15.446293      0              32.247953      64025.45     
       970   2497.7421      15.118357      0              32.229858      64446.996    
       980   2539.0414      14.848068      0              32.242502      65415.607    
       990   2572.8173      14.564374      0              32.1902        66295.749    
      1000   2595.6577      14.390906      0              32.173205      66807.361    
Loop time of 21.5337 on 1 procs for 1000 steps with 54 atoms

Performance: 4.012 ns/day, 5.982 hours/ns, 46.439 timesteps/s, 2.508 katom-step/s
99.7% CPU use with 1 MPI tasks x 1 OpenMP threads

MPI task timing breakdown:
Section |  min time  |  avg time  |  max time  |%varavg| %total
---------------------------------------------------------------
Pair    | 21.445     | 21.445     | 21.445     |   0.0 | 99.59
Neigh   | 0.0067029  | 0.0067029  | 0.0067029  |   0.0 |  0.03
Comm    | 0.012984   | 0.012984   | 0.012984   |   0.0 |  0.06
Output  | 0.064765   | 0.064765   | 0.064765   |   0.0 |  0.30
Modify  | 0.0012366  | 0.0012366  | 0.0012366  |   0.0 |  0.01
Other   |            | 0.002621   |            |       |  0.01

Nlocal:             54 ave          54 max          54 min
Histogram: 1 0 0 0 0 0 0 0 0 0
Nghost:           3315 ave        3315 max        3315 min
Histogram: 1 0 0 0 0 0 0 0 0 0
Neighs:            637 ave         637 max         637 min
Histogram: 1 0 0 0 0 0 0 0 0 0
FullNghs:        28742 ave       28742 max       28742 min
Histogram: 1 0 0 0 0 0 0 0 0 0

Total # of neighbors = 28742
Ave neighs/atom = 532.25926
Neighbor list builds = 10
Dangerous builds = 0
unfix  a1
min_style  cg
min_modify  dmax 0.5 line quadratic
dump    a6 all xyz 1 min_6.xyz
minimize 1e-12 1e-12 10000 100000
Per MPI rank memory allocation (min/avg/max) = 10.33 | 10.33 | 10.33 Mbytes
   Step          Temp          E_pair         E_mol          TotEng         Press     
      1000   2595.6577      14.481001      0              32.263301      67034.815    
      1010   2595.6577      2.2679945      0              20.050294      23718.385    
      1020   2595.6577      1.7794142      0              19.561714      16415.23     
      1023   2595.6577      1.9770803      0              19.75938       16383.208    
Loop time of 1.997 on 1 procs for 23 steps with 54 atoms

99.8% CPU use with 1 MPI tasks x 1 OpenMP threads

Minimization stats:
  Stopping criterion = linesearch alpha is zero
  Energy initial, next-to-last, final = 
      14.4810009351568   1.77023106512207   1.97708028253692
  Force two-norm initial, final = 5.6190518 0.31470694
  Force max component initial, final = 1.1053186 0.079698497
  Final line search alpha, max atom move = 1.1920929e-07 9.5008012e-09
  Iterations, force evaluations = 23 92

MPI task timing breakdown:
Section |  min time  |  avg time  |  max time  |%varavg| %total
---------------------------------------------------------------
Pair    | 1.9908     | 1.9908     | 1.9908     |   0.0 | 99.69
Neigh   | 0.0019306  | 0.0019306  | 0.0019306  |   0.0 |  0.10
Comm    | 0.0012456  | 0.0012456  | 0.0012456  |   0.0 |  0.06
Output  | 0.0023673  | 0.0023673  | 0.0023673  |   0.0 |  0.12
Modify  | 0          | 0          | 0          |   0.0 |  0.00
Other   |            | 0.0006409  |            |       |  0.03

Nlocal:             54 ave          54 max          54 min
Histogram: 1 0 0 0 0 0 0 0 0 0
Nghost:           3308 ave        3308 max        3308 min
Histogram: 1 0 0 0 0 0 0 0 0 0
Neighs:            590 ave         590 max         590 min
Histogram: 1 0 0 0 0 0 0 0 0 0
FullNghs:        28638 ave       28638 max       28638 min
Histogram: 1 0 0 0 0 0 0 0 0 0

Total # of neighbors = 28638
Ave neighs/atom = 530.33333
Neighbor list builds = 3
Dangerous builds = 0
write_data ./StructureDump/sample.6.dat 
System init for write_data ...
variable etot equal etotal
variable ptot equal press
variable pairp equal epair
variable numat equal atoms
run 0
WARNING: No fixes with time integration, atoms won't move (src/verlet.cpp:60)
Per MPI rank memory allocation (min/avg/max) = 10.21 | 10.21 | 10.21 Mbytes
   Step          Temp          E_pair         E_mol          TotEng         Press     
      1023   2595.6577      1.9770803      0              19.75938       16365.529    
Loop time of 3.4401e-05 on 1 procs for 0 steps with 54 atoms

69.8% CPU use with 1 MPI tasks x 1 OpenMP threads

MPI task timing breakdown:
Section |  min time  |  avg time  |  max time  |%varavg| %total
---------------------------------------------------------------
Pair    | 0          | 0          | 0          |   0.0 |  0.00
Neigh   | 0          | 0          | 0          |   0.0 |  0.00
Comm    | 0          | 0          | 0          |   0.0 |  0.00
Output  | 0          | 0          | 0          |   0.0 |  0.00
Modify  | 0          | 0          | 0          |   0.0 |  0.00
Other   |            | 3.44e-05   |            |       |100.00

Nlocal:             54 ave          54 max          54 min
Histogram: 1 0 0 0 0 0 0 0 0 0
Nghost:           3308 ave        3308 max        3308 min
Histogram: 1 0 0 0 0 0 0 0 0 0
Neighs:            595 ave         595 max         595 min
Histogram: 1 0 0 0 0 0 0 0 0 0
FullNghs:        28626 ave       28626 max       28626 min
Histogram: 1 0 0 0 0 0 0 0 0 0

Total # of neighbors = 28626
Ave neighs/atom = 530.11111
Neighbor list builds = 0
Dangerous builds = 0
print "${etot} ${pairp} ${ptot} ${numat} " append Summary.dat screen no
Total wall time: 0:00:24
