mass 1 180.947880
pair_style hybrid/overlay soft 2.720 mliap model mliappy LATER descriptor ace coupling_coefficients.yace
Loading python model deferred.
pair_coeff * * soft 1.000000
pair_coeff * * mliap   Ta

thermo 10
velocity all create 1. 4928459 dist gaussian
Loading python model complete.
dump    r8 all xyz 1 dyn_8.xyz
velocity all create 800.0 4928459 loop geom
fix  a1  all nve
run 1000
Neighbor list info ...
  update: every = 1 steps, delay = 0 steps, check = yes
  max neighbors/atom: 2000, page size: 100000
  master list distance cutoff = 13.209389
  ghost atom cutoff = 13.209389
  binsize = 6.6046944, bins = 2 2 3
  2 neighbor lists, perpetual/occasional/extra = 2 0 0
  (1) pair soft, perpetual, half/full trim from (2)
      attributes: half, newton on, cut 4.720000000000001
      pair build: halffull/trim/newton/tri
      stencil: none
      bin: none
  (2) pair mliap, perpetual
      attributes: full, newton on
      pair build: full/bin/atomonly
      stencil: full/bin/3d
      bin: standard
Per MPI rank memory allocation (min/avg/max) = 9.543 | 9.543 | 9.543 Mbytes
   Step          Temp          E_pair         E_mol          TotEng         Press     
         0   800            29.337785      0              35.749088      70326.105    
        10   838.48828      29.025313      0              35.745066      69925.067    
        20   930.14105      28.364043      0              35.818314      69787.575    
        30   1069.4515      27.158919      0              35.729641      69404.627    
        40   1248.2502      25.793075      0              35.796713      69388.089    
        50   1454.4997      24.199053      0              35.855601      69200.087    
        60   1674.3998      22.350227      0              35.769083      68488.58     
        70   1896.4135      20.597024      0              35.795127      67842.858    
        80   2104.5951      18.918145      0              35.784641      67143.618    
        90   2284.8685      17.468686      0              35.779917      66154.002    
       100   2429.2853      16.257681      0              35.726287      65227.702    
       110   2536.398       15.431306      0              35.758327      64231.918    
       120   2607.5018      14.856036      0              35.752891      63103.294    
       130   2644.2373      14.550647      0              35.741905      62317.607    
       140   2652.6666      14.49509       0              35.753902      61757.091    
       150   2637.2075      14.624074      0              35.758995      61136.844    
       160   2604.3         14.877188      0              35.748383      60326.745    
       170   2559.9692      15.246309      0              35.762233      59576.461    
       180   2510.3847      15.623762      0              35.742309      59149.777    
       190   2462.7459      16.034644      0              35.771407      59229.265    
       200   2419.1283      16.417519      0              35.804725      59454.362    
       210   2380.933       16.70401       0              35.785114      60007.73     
       220   2349.9555      16.843453      0              35.6763        60636.662    
       230   2324.1184      17.048658      0              35.674442      61569.704    
       240   2299.7283      17.276211      0              35.70653       62581.481    
       250   2271.8994      17.48422       0              35.691514      63153.171    
       260   2241.2677      17.73766       0              35.699468      63413.354    
       270   2214.1788      17.917584      0              35.662298      63732.116    
       280   2193.4129      18.138053      0              35.716347      63921.142    
       290   2181.1393      18.226405      0              35.706336      63628.238    
       300   2178.3791      18.251254      0              35.709065      63261.878    
       310   2186.385       18.162133      0              35.684105      62848.486    
       320   2205.7136      18.163612      0              35.840485      62615.781    
       330   2232.9385      17.927769      0              35.822826      62519.63     
       340   2260.8154      17.697425      0              35.815892      62705.751    
       350   2285.8794      17.526285      0              35.845617      63080.224    
       360   2312.3763      17.330262      0              35.861943      63293.225    
       370   2345.275       17.058648      0              35.853985      63398.555    
       380   2385.111       16.701156      0              35.815743      63603.944    
       390   2429.2369      16.344263      0              35.812481      63598.666    
       400   2479.1477      15.956299      0              35.824508      63628.537    
       410   2534.3058      15.435533      0              35.745787      63439.51     
       420   2590.8524      14.986261      0              35.749687      62915.599    
       430   2644.7569      14.584621      0              35.780044      62011.715    
       440   2691.2524      14.177338      0              35.745382      60486.654    
       450   2731.5245      13.87833       0              35.769119      59569.516    
       460   2763.9453      13.617324      0              35.767939      58842.151    
       470   2786.6922      13.466293      0              35.799204      58454.15     
       480   2796.8846      13.361362      0              35.775956      58541.206    
       490   2793.6412      13.356023      0              35.744624      58883.743    
       500   2775.7978      13.476605      0              35.722207      58680.366    
       510   2743.8042      13.711524      0              35.700725      58178.984    
       520   2699.8092      14.050103      0              35.686723      57718.993    
       530   2647.6177      14.458817      0              35.677167      56968.737    
       540   2588.1016      14.882845      0              35.624225      56346.862    
       550   2522.7448      15.415782      0              35.633385      55977.858    
       560   2454.7636      15.957097      0              35.629889      55658.43     
       570   2386.9885      16.497169      0              35.626803      55810.507    
       580   2325.0661      16.986416      0              35.619796      55847.825    
       590   2275.3037      17.408875      0              35.643453      56308.366    
       600   2242.3499      17.639686      0              35.610167      57178        
       610   2227.8113      17.765595      0              35.619562      58368.871    
       620   2228.2816      17.777254      0              35.634991      59804.948    
       630   2240.4965      17.657102      0              35.61273       60897.024    
       640   2263.2998      17.460869      0              35.599246      61615.758    
       650   2293.779       17.218747      0              35.601388      62191.01     
       660   2328.0329      16.946439      0              35.603595      62385.975    
       670   2362.3047      16.607558      0              35.539372      62455.488    
       680   2392.6439      16.347854      0              35.522811      62407.05     
       690   2419.3402      16.14428       0              35.533185      62360.18     
       700   2441.3887      15.9443        0              35.509904      62250.847    
       710   2454.3533      15.808398      0              35.477902      62057.56     
       720   2461.4859      15.854297      0              35.580963      62029.235    
       730   2463.6681      15.814537      0              35.558691      61668.719    
       740   2462.9502      15.846515      0              35.584915      61409.057    
       750   2457.7241      16.000633      0              35.697151      61900.005    
       760   2445.8915      16.089431      0              35.691121      61624.978    
       770   2433.7098      16.17979       0              35.683854      61282.97     
       780   2424.795       16.249515      0              35.682135      60979.495    
       790   2418.1081      16.30741       0              35.68644       60822.861    
       800   2413.7666      16.35701       0              35.701247      60526.263    
       810   2416.1737      16.356143      0              35.719671      60568.316    
       820   2429.3901      16.244627      0              35.714073      60758.57     
       830   2451.9467      15.931529      0              35.581746      61103.298    
       840   2478.8552      15.742933      0              35.608799      61827.167    
       850   2509.0339      15.500548      0              35.608269      62695.95     
       860   2539.6117      15.251809      0              35.604585      63702.503    
       870   2567.9651      14.988552      0              35.568556      64013.139    
       880   2593.0176      14.792447      0              35.573225      64422.666    
       890   2613.4876      14.639434      0              35.58426       64550.813    
       900   2633.3521      14.495936      0              35.59996       64468.368    
       910   2653.6298      14.140588      0              35.407119      63986.049    
       920   2673.0147      14.005419      0              35.427304      63476.357    
       930   2692.0319      13.80889       0              35.38318       62258.727    
       940   2708.4878      13.699582      0              35.405752      61280.826    
       950   2719.6686      13.611088      0              35.406863      60912.865    
       960   2723.4778      13.56575       0              35.392053      60665.294    
       970   2718.0671      13.619687      0              35.402627      60997.786    
       980   2702.8359      13.776011      0              35.436887      61596.755    
       990   2681.7871      13.976074      0              35.468262      61956.446    
      1000   2653.9585      14.196919      0              35.466085      62171.683    
Loop time of 24.206 on 1 procs for 1000 steps with 63 atoms

Performance: 3.569 ns/day, 6.724 hours/ns, 41.312 timesteps/s, 2.603 katom-step/s
99.7% CPU use with 1 MPI tasks x 1 OpenMP threads

MPI task timing breakdown:
Section |  min time  |  avg time  |  max time  |%varavg| %total
---------------------------------------------------------------
Pair    | 24.117     | 24.117     | 24.117     |   0.0 | 99.63
Neigh   | 0.0091807  | 0.0091807  | 0.0091807  |   0.0 |  0.04
Comm    | 0.011358   | 0.011358   | 0.011358   |   0.0 |  0.05
Output  | 0.064725   | 0.064725   | 0.064725   |   0.0 |  0.27
Modify  | 0.0011521  | 0.0011521  | 0.0011521  |   0.0 |  0.00
Other   |            | 0.002301   |            |       |  0.01

Nlocal:             63 ave          63 max          63 min
Histogram: 1 0 0 0 0 0 0 0 0 0
Nghost:           2970 ave        2970 max        2970 min
Histogram: 1 0 0 0 0 0 0 0 0 0
Neighs:            719 ave         719 max         719 min
Histogram: 1 0 0 0 0 0 0 0 0 0
FullNghs:        33432 ave       33432 max       33432 min
Histogram: 1 0 0 0 0 0 0 0 0 0

Total # of neighbors = 33432
Ave neighs/atom = 530.66667
Neighbor list builds = 11
Dangerous builds = 0
unfix  a1
min_style  cg
min_modify  dmax 0.5 line quadratic
dump    a8 all xyz 1 min_8.xyz
minimize 1e-12 1e-12 10000 100000
Per MPI rank memory allocation (min/avg/max) = 11.68 | 11.68 | 11.68 Mbytes
   Step          Temp          E_pair         E_mol          TotEng         Press     
      1000   2653.9585      14.284935      0              35.5541        62170.513    
      1008   2653.9585      2.9706526      0              24.239818      27193.444    
Loop time of 1.66763 on 1 procs for 8 steps with 63 atoms

99.7% CPU use with 1 MPI tasks x 1 OpenMP threads

Minimization stats:
  Stopping criterion = linesearch alpha is zero
  Energy initial, next-to-last, final = 
      14.2849347624721   2.76007271680309   2.97065258893444
  Force two-norm initial, final = 6.3576696 0.87379733
  Force max component initial, final = 1.2626202 0.21900398
  Final line search alpha, max atom move = 1.4901161e-08 3.2634136e-09
  Iterations, force evaluations = 8 68

MPI task timing breakdown:
Section |  min time  |  avg time  |  max time  |%varavg| %total
---------------------------------------------------------------
Pair    | 1.6639     | 1.6639     | 1.6639     |   0.0 | 99.78
Neigh   | 0.0016506  | 0.0016506  | 0.0016506  |   0.0 |  0.10
Comm    | 0.00082054 | 0.00082054 | 0.00082054 |   0.0 |  0.05
Output  | 0.00079523 | 0.00079523 | 0.00079523 |   0.0 |  0.05
Modify  | 0          | 0          | 0          |   0.0 |  0.00
Other   |            | 0.0004685  |            |       |  0.03

Nlocal:             63 ave          63 max          63 min
Histogram: 1 0 0 0 0 0 0 0 0 0
Nghost:           2973 ave        2973 max        2973 min
Histogram: 1 0 0 0 0 0 0 0 0 0
Neighs:            701 ave         701 max         701 min
Histogram: 1 0 0 0 0 0 0 0 0 0
FullNghs:        33544 ave       33544 max       33544 min
Histogram: 1 0 0 0 0 0 0 0 0 0

Total # of neighbors = 33544
Ave neighs/atom = 532.44444
Neighbor list builds = 2
Dangerous builds = 0
write_data ./StructureDump/sample.8.dat 
System init for write_data ...
variable etot equal etotal
variable ptot equal press
variable pairp equal epair
variable numat equal atoms
run 0
WARNING: No fixes with time integration, atoms won't move (src/verlet.cpp:60)
Per MPI rank memory allocation (min/avg/max) = 11.56 | 11.56 | 11.56 Mbytes
   Step          Temp          E_pair         E_mol          TotEng         Press     
      1008   2653.9585      2.9706526      0              24.239818      27014.548    
Loop time of 2.0083e-05 on 1 procs for 0 steps with 63 atoms

74.7% CPU use with 1 MPI tasks x 1 OpenMP threads

MPI task timing breakdown:
Section |  min time  |  avg time  |  max time  |%varavg| %total
---------------------------------------------------------------
Pair    | 0          | 0          | 0          |   0.0 |  0.00
Neigh   | 0          | 0          | 0          |   0.0 |  0.00
Comm    | 0          | 0          | 0          |   0.0 |  0.00
Output  | 0          | 0          | 0          |   0.0 |  0.00
Modify  | 0          | 0          | 0          |   0.0 |  0.00
Other   |            | 2.008e-05  |            |       |100.00

Nlocal:             63 ave          63 max          63 min
Histogram: 1 0 0 0 0 0 0 0 0 0
Nghost:           2989 ave        2989 max        2989 min
Histogram: 1 0 0 0 0 0 0 0 0 0
Neighs:            709 ave         709 max         709 min
Histogram: 1 0 0 0 0 0 0 0 0 0
FullNghs:        33524 ave       33524 max       33524 min
Histogram: 1 0 0 0 0 0 0 0 0 0

Total # of neighbors = 33524
Ave neighs/atom = 532.12698
Neighbor list builds = 0
Dangerous builds = 0
print "${etot} ${pairp} ${ptot} ${numat} " append Summary.dat screen no
Total wall time: 0:00:26
