mass 1 180.947880
pair_style hybrid/overlay soft 2.720 mliap model mliappy LATER descriptor ace coupling_coefficients.yace
Loading python model deferred.
pair_coeff * * soft 1.000000
pair_coeff * * mliap   Ta

thermo 10
velocity all create 1. 4928459 dist gaussian
Loading python model complete.
dump    r9 all xyz 1 dyn_9.xyz
velocity all create 800.0 4928459 loop geom
fix  a1  all nve
run 1000
Neighbor list info ...
  update: every = 1 steps, delay = 0 steps, check = yes
  max neighbors/atom: 2000, page size: 100000
  master list distance cutoff = 13.209389
  ghost atom cutoff = 13.209389
  binsize = 6.6046944, bins = 5 2 1
  2 neighbor lists, perpetual/occasional/extra = 2 0 0
  (1) pair soft, perpetual, half/full trim from (2)
      attributes: half, newton on, cut 4.720000000000001
      pair build: halffull/trim/newton/tri
      stencil: none
      bin: none
  (2) pair mliap, perpetual
      attributes: full, newton on
      pair build: full/bin/atomonly
      stencil: full/bin/3d
      bin: standard
Per MPI rank memory allocation (min/avg/max) = 6.817 | 6.817 | 6.817 Mbytes
   Step          Temp          E_pair         E_mol          TotEng         Press     
         0   800            19.18739       0              23.633939      64799.958    
        10   832.76226      19.023006      0              23.651654      65568.895    
        20   907.42295      18.584189      0              23.627815      65927.163    
        30   1020.0949      17.971048      0              23.640925      66571.18     
        40   1164.1199      17.169718      0              23.640113      67098.405    
        50   1331.8043      16.230534      0              23.632951      67462.085    
        60   1513.2594      15.215575      0              23.626552      67366.687    
        70   1699.6426      14.168866      0              23.615796      66800.505    
        80   1881.4675      13.197372      0              23.654918      66225.998    
        90   2048.0437      12.267524      0              23.650933      65245.587    
       100   2191.0798      11.51239       0              23.690819      63772.431    
       110   2304.9633      10.857063      0              23.668478      62323.698    
       120   2387.5109      10.415505      0              23.685735      61352.985    
       130   2436.0853      10.136902      0              23.677117      60180.189    
       140   2453.4801      10.034517      0              23.671416      59266.053    
       150   2441.3261      10.10508       0              23.674425      58590.226    
       160   2407.8547      10.237707      0              23.621012      58013.676    
       170   2362.8409      10.545542      0              23.678652      57542.667    
       180   2314.6401      10.8266        0              23.691801      56640.887    
       190   2268.653       11.121196      0              23.730792      55714.618    
       200   2231.7683      11.278096      0              23.68268       54468.678    
       210   2207.1734      11.342878      0              23.610759      53431.94     
       220   2195.5388      11.360903      0              23.564117      52812.008    
       230   2190.143       11.398049      0              23.571272      52387.333    
       240   2185.3466      11.456806      0              23.603369      52440.234    
       250   2178.0885      11.521055      0              23.627277      52672.922    
       260   2172.3683      11.448376      0              23.522803      52827.757    
       270   2166.6061      11.477265      0              23.519665      53457.091    
       280   2156.5556      11.448632      0              23.43517       53527.047    
       290   2141.9198      11.631594      0              23.536783      53618.279    
       300   2126.2587      11.663719      0              23.481861      53531.343    
       310   2113.7554      11.738148      0              23.486793      54048.381    
       320   2103.6654      11.763423      0              23.455987      54720.313    
       330   2096.0216      11.797279      0              23.447357      55152.207    
       340   2090.3515      11.815805      0              23.434368      55710.92     
       350   2085.694       11.819686      0              23.412361      56305.655    
       360   2080.9445      11.855935      0              23.422212      56503.042    
       370   2077.7236      11.979725      0              23.5281        56296.004    
       380   2082.3631      11.979736      0              23.553898      56537.807    
       390   2101.6198      11.948721      0              23.629915      56820.202    
       400   2138.4291      11.655421      0              23.541209      56383.518    
       410   2190.5809      11.416376      0              23.592032      56234.763    
       420   2255.6571      11.154341      0              23.691703      56222.519    
       430   2330.0285      10.728814      0              23.679547      55823.738    
       440   2406.1612      10.293352      0              23.667244      55082.07     
       450   2477.853       9.9400678      0              23.712436      55385.675    
       460   2533.8701      9.6053247      0              23.689047      55644.823    
       470   2569.6854      9.4055888      0              23.688379      55853.472    
       480   2584.0307      9.2606436      0              23.623168      55985.791    
       490   2583.1729      9.3089887      0              23.666745      56663.431    
       500   2573.4686      9.3350116      0              23.63883       57134.279    
       510   2557.5649      9.4071926      0              23.622615      57008.169    
       520   2537.3631      9.5390341      0              23.642171      57062.471    
       530   2516.4752      9.5698803      0              23.556918      56448.278    
       540   2496.3199      9.7280348      0              23.603046      55754.196    
       550   2481.6412      9.8171821      0              23.610606      55420.156    
       560   2474.7445      9.8585752      0              23.613666      54850.685    
       570   2475.8812      9.8491756      0              23.610585      54582.851    
       580   2480.4747      9.8582053      0              23.645145      54806.988    
       590   2483.1136      9.9759232      0              23.777531      55593.379    
       600   2479.9538      10.016293      0              23.800338      55849.87     
       610   2466.1145      10.093773      0              23.800896      56405.971    
       620   2437.4271      10.292692      0              23.840366      56358.08     
       630   2393.7147      10.567673      0              23.872385      56107.831    
       640   2338.2608      10.854845      0              23.851334      55873.694    
       650   2277.9817      11.227919      0              23.889366      56045.531    
       660   2218.9547      11.563313      0              23.896676      56192.173    
       670   2161.503       11.871759      0              23.885795      55986.138    
       680   2109.514       12.162679      0              23.88775       55989.645    
       690   2066.5031      12.396127      0              23.882136      56304.114    
       700   2032.6463      12.598717      0              23.896544      56583.145    
       710   2011.6169      12.726018      0              23.906959      57361.398    
       720   2003.0799      12.772103      0              23.905594      57269.211    
       730   2006.6004      12.762533      0              23.915592      57300.507    
       740   2022.6528      12.696695      0              23.938976      57641.213    
       750   2051.0026      12.515559      0              23.915413      57985.16     
       760   2087.8498      12.291964      0              23.896622      58248.706    
       770   2131.7565      12.047572      0              23.896271      58170.041    
       780   2181.393       11.770437      0              23.895026      58278.311    
       790   2229.2491      11.527217      0              23.917799      58299.454    
       800   2271.1644      11.261887      0              23.885442      57692.453    
       810   2305.4046      11.084756      0              23.898624      56718.242    
       820   2332.6407      10.95646       0              23.921712      55441.356    
       830   2358.3561      10.809383      0              23.917565      55031.549    
       840   2382.1023      10.671572      0              23.91174       54110.881    
       850   2403.6798      10.52361       0              23.88371       53365.925    
       860   2424.2023      10.425822      0              23.89999       52709.71     
       870   2443.5649      10.327395      0              23.909184      52407.057    
       880   2468.4408      10.133683      0              23.853737      52582.554    
       890   2499.4682      9.9553023      0              23.847812      53053.223    
       900   2531.0425      9.7974486      0              23.865454      54201.047    
       910   2560.8072      9.7150936      0              23.948537      55566.829    
       920   2583.0103      9.5265216      0              23.883374      56502.086    
       930   2592.7802      9.4352549      0              23.84641       57013.676    
       940   2582.0832      9.4917576      0              23.843457      57908.872    
       950   2555.3429      9.6422549      0              23.845327      58482.855    
       960   2518.8887      9.8307083      0              23.831161      58434.505    
       970   2475.2462      10.071792      0              23.829671      58017.824    
       980   2428.921       10.369832      0              23.870227      56946.627    
       990   2383.4473      10.616921      0              23.864566      55743.399    
      1000   2340.6508      10.90255       0              23.912323      55305.339    
Loop time of 17.733 on 1 procs for 1000 steps with 44 atoms

Performance: 4.872 ns/day, 4.926 hours/ns, 56.392 timesteps/s, 2.481 katom-step/s
99.7% CPU use with 1 MPI tasks x 1 OpenMP threads

MPI task timing breakdown:
Section |  min time  |  avg time  |  max time  |%varavg| %total
---------------------------------------------------------------
Pair    | 17.659     | 17.659     | 17.659     |   0.0 | 99.58
Neigh   | 0.0046557  | 0.0046557  | 0.0046557  |   0.0 |  0.03
Comm    | 0.013426   | 0.013426   | 0.013426   |   0.0 |  0.08
Output  | 0.052989   | 0.052989   | 0.052989   |   0.0 |  0.30
Modify  | 0.001037   | 0.001037   | 0.001037   |   0.0 |  0.01
Other   |            | 0.002245   |            |       |  0.01

Nlocal:             44 ave          44 max          44 min
Histogram: 1 0 0 0 0 0 0 0 0 0
Nghost:           3318 ave        3318 max        3318 min
Histogram: 1 0 0 0 0 0 0 0 0 0
Neighs:            498 ave         498 max         498 min
Histogram: 1 0 0 0 0 0 0 0 0 0
FullNghs:        23470 ave       23470 max       23470 min
Histogram: 1 0 0 0 0 0 0 0 0 0

Total # of neighbors = 23470
Ave neighs/atom = 533.40909
Neighbor list builds = 9
Dangerous builds = 0
unfix  a1
min_style  cg
min_modify  dmax 0.5 line quadratic
dump    a9 all xyz 1 min_9.xyz
minimize 1e-12 1e-12 10000 100000
Per MPI rank memory allocation (min/avg/max) = 8.956 | 8.956 | 8.956 Mbytes
   Step          Temp          E_pair         E_mol          TotEng         Press     
      1000   2340.6508      10.920235      0              23.930008      55408.511    
      1010   2340.6508      2.1350967      0              15.14487       14033.849    
      1011   2340.6508      2.1350967      0              15.14487       14033.849    
Loop time of 1.18361 on 1 procs for 11 steps with 44 atoms

99.8% CPU use with 1 MPI tasks x 1 OpenMP threads

Minimization stats:
  Stopping criterion = linesearch alpha is zero
  Energy initial, next-to-last, final = 
      10.9202350744147   2.13509668230499   2.13509668230499
  Force two-norm initial, final = 5.598852 0.40011293
  Force max component initial, final = 1.1823831 0.13707529
  Final line search alpha, max atom move = 1.1920929e-07 1.6340648e-08
  Iterations, force evaluations = 11 67

MPI task timing breakdown:
Section |  min time  |  avg time  |  max time  |%varavg| %total
---------------------------------------------------------------
Pair    | 1.1809     | 1.1809     | 1.1809     |   0.0 | 99.77
Neigh   | 0.00050325 | 0.00050325 | 0.00050325 |   0.0 |  0.04
Comm    | 0.00093512 | 0.00093512 | 0.00093512 |   0.0 |  0.08
Output  | 0.00088022 | 0.00088022 | 0.00088022 |   0.0 |  0.07
Modify  | 0          | 0          | 0          |   0.0 |  0.00
Other   |            | 0.0004328  |            |       |  0.04

Nlocal:             44 ave          44 max          44 min
Histogram: 1 0 0 0 0 0 0 0 0 0
Nghost:           3350 ave        3350 max        3350 min
Histogram: 1 0 0 0 0 0 0 0 0 0
Neighs:            486 ave         486 max         486 min
Histogram: 1 0 0 0 0 0 0 0 0 0
FullNghs:        23388 ave       23388 max       23388 min
Histogram: 1 0 0 0 0 0 0 0 0 0

Total # of neighbors = 23388
Ave neighs/atom = 531.54545
Neighbor list builds = 1
Dangerous builds = 0
write_data ./StructureDump/sample.9.dat 
System init for write_data ...
variable etot equal etotal
variable ptot equal press
variable pairp equal epair
variable numat equal atoms
run 0
WARNING: No fixes with time integration, atoms won't move (src/verlet.cpp:60)
Per MPI rank memory allocation (min/avg/max) = 8.835 | 8.835 | 8.835 Mbytes
   Step          Temp          E_pair         E_mol          TotEng         Press     
      1011   2340.6508      2.1350967      0              15.14487       13921.916    
Loop time of 1.9866e-05 on 1 procs for 0 steps with 44 atoms

75.5% CPU use with 1 MPI tasks x 1 OpenMP threads

MPI task timing breakdown:
Section |  min time  |  avg time  |  max time  |%varavg| %total
---------------------------------------------------------------
Pair    | 0          | 0          | 0          |   0.0 |  0.00
Neigh   | 0          | 0          | 0          |   0.0 |  0.00
Comm    | 0          | 0          | 0          |   0.0 |  0.00
Output  | 0          | 0          | 0          |   0.0 |  0.00
Modify  | 0          | 0          | 0          |   0.0 |  0.00
Other   |            | 1.987e-05  |            |       |100.00

Nlocal:             44 ave          44 max          44 min
Histogram: 1 0 0 0 0 0 0 0 0 0
Nghost:           3332 ave        3332 max        3332 min
Histogram: 1 0 0 0 0 0 0 0 0 0
Neighs:            485 ave         485 max         485 min
Histogram: 1 0 0 0 0 0 0 0 0 0
FullNghs:        23358 ave       23358 max       23358 min
Histogram: 1 0 0 0 0 0 0 0 0 0

Total # of neighbors = 23358
Ave neighs/atom = 530.86364
Neighbor list builds = 0
Dangerous builds = 0
print "${etot} ${pairp} ${ptot} ${numat} " append Summary.dat screen no
Total wall time: 0:00:21
