mass 1 180.947880
pair_style hybrid/overlay soft 2.720 mliap model mliappy LATER descriptor ace coupling_coefficients.yace
Loading python model deferred.
pair_coeff * * soft 1.000000
pair_coeff * * mliap   Ta

thermo 10
velocity all create 1. 4928459 dist gaussian
Loading python model complete.
dump    r10 all xyz 1 dyn_10.xyz
velocity all create 800.0 4928459 loop geom
fix  a1  all nve
run 1000
Neighbor list info ...
  update: every = 1 steps, delay = 0 steps, check = yes
  max neighbors/atom: 2000, page size: 100000
  master list distance cutoff = 13.209389
  ghost atom cutoff = 13.209389
  binsize = 6.6046944, bins = 11 16 22
  2 neighbor lists, perpetual/occasional/extra = 2 0 0
  (1) pair soft, perpetual, half/full trim from (2)
      attributes: half, newton on, cut 4.720000000000001
      pair build: halffull/trim/newton/tri
      stencil: none
      bin: none
  (2) pair mliap, perpetual
      attributes: full, newton on
      pair build: full/bin/atomonly
      stencil: full/bin/3d
      bin: standard
Per MPI rank memory allocation (min/avg/max) = 8.228 | 8.228 | 8.228 Mbytes
   Step          Temp          E_pair         E_mol          TotEng         Press     
         0   800            8.7318167      0              14.109039      43660.515    
        10   796.77054      8.7241132      0              14.079628      43629.045    
        20   815.55227      8.6245534      0              14.10631       43843.425    
        30   855.03839      8.3459672      0              14.093131      43749.962    
        40   912.34534      7.9563262      0              14.088681      43565.911    
        50   983.47583      7.4792188      0              14.089679      43158.577    
        60   1063.3584      6.9591388      0              14.106531      42605.348    
        70   1147.9293      6.3628079      0              14.078646      41799.091    
        80   1232.5059      5.7991505      0              14.083473      40859.5      
        90   1311.367       5.2870568      0              14.101446      39808.994    
       100   1380.0306      4.8517638      0              14.127678      38647.245    
       110   1434.4811      4.4890409      0              14.130945      37102.821    
       120   1472.1555      4.216943       0              14.112077      35414.385    
       130   1492.789       4.0790481      0              14.112871      33944.49     
       140   1498.7547      3.9067774      0              13.980698      33231.568    
       150   1493.4166      3.9271693      0              13.96521       33685.877    
       160   1477.0046      4.0594508      0              13.987178      34327.422    
       170   1451.2773      4.2149104      0              13.96971       34736.174    
       180   1419.96        4.4576454      0              14.001946      35476.439    
       190   1385.6031      4.6590168      0              13.972386      36077.859    
       200   1349.2723      4.9049436      0              13.974114      36518.723    
       210   1313.1248      5.135618       0              13.961823      36724.065    
       220   1279.3398      5.3661311      0              13.965249      36856.726    
       230   1249.5909      5.5484682      0              13.947628      36844.002    
       240   1225.8574      5.7045837      0              13.944218      36791.072    
       250   1208.9544      5.8040311      0              13.930052      36762.274    
       260   1198.8099      5.9345523      0              13.992386      36989.88     
       270   1196.0258      5.9637219      0              14.002842      37153.989    
       280   1200.0349      5.9346881      0              14.000756      37743.275    
       290   1210.798       5.9036728      0              14.042085      38362.049    
       300   1227.075       5.8001918      0              14.04801       38705.691    
       310   1247.8163      5.6549444      0              14.042176      38905.128    
       320   1270.5414      5.5171269      0              14.057106      39168.811    
       330   1292.5826      5.346184       0              14.034313      39178.628    
       340   1311.0601      5.2357458      0              14.048072      39390.032    
       350   1321.6995      5.1246499      0              14.00849       39320.68     
       360   1323.539       5.0773122      0              13.973516      38991.687    
       370   1318.5354      5.1170177      0              13.979589      38825.002    
       380   1307.6663      5.2092879      0              13.998803      38786.782    
       390   1292.2236      5.2264014      0              13.912118      38376.363    
       400   1274.7645      5.3386953      0              13.90706       38478.842    
       410   1254.9835      5.4842762      0              13.919682      38558.847    
       420   1233.6042      5.6362223      0              13.927927      38605.915    
       430   1213.2318      5.7491217      0              13.903893      38751.284    
       440   1194.7753      5.8557848      0              13.8865        38944.776    
       450   1179.7051      5.9594312      0              13.888852      39103.34     
       460   1170.1387      6.0107451      0              13.875864      39141.811    
       470   1168.4529      6.0105328      0              13.864321      39113.605    
       480   1175.2939      6.0150945      0              13.914865      39368.526    
       490   1189.6785      5.939199       0              13.935656      39580.837    
       500   1210.0368      5.8089698      0              13.942266      39807.477    
       510   1235.2867      5.6530501      0              13.956064      39960.975    
       520   1264.0935      5.4298249      0              13.926464      39794.216    
       530   1294.9769      5.2645157      0              13.968738      39519.887    
       540   1325.3538      5.0185303      0              13.926933      38873.699    
       550   1352.5089      5.0156708      0              14.106597      38546.723    
       560   1376.7002      4.925502       0              14.17903       38057.816    
       570   1398.4915      4.7571766      0              14.157176      37493.665    
       580   1418.1692      4.5863423      0              14.118605      37157.132    
       590   1434.7587      4.474275       0              14.118045      36889.762    
       600   1449.4015      4.3295096      0              14.071701      36660.409    
       610   1462.8485      4.2543292      0              14.086905      36394.714    
       620   1472.8747      4.1695765      0              14.069544      36171.96     
       630   1478.0638      4.1858002      0              14.120647      35943.908    
       640   1477.5382      4.1714861      0              14.1028        35736.094    
       650   1473.2105      4.2372099      0              14.139435      35848.449    
       660   1466.0426      4.2552747      0              14.10932       35939.449    
       670   1457.6603      4.2750651      0              14.072769      35966.684    
       680   1448.7171      4.3205899      0              14.058182      35945.812    
       690   1439.5637      4.3820092      0              14.058076      35958.297    
       700   1431.3137      4.4356604      0              14.056275      36205.195    
       710   1424.604       4.4974676      0              14.072983      36714.942    
       720   1419.6739      4.5448219      0              14.087199      37183.455    
       730   1416.588       4.6084232      0              14.130058      37817.094    
       740   1414.253       4.622072       0              14.128013      38317.108    
       750   1410.6092      4.6443159      0              14.125764      38634.264    
       760   1405.3042      4.6965106      0              14.142302      38851.605    
       770   1398.5045      4.7649222      0              14.165009      38965.27     
       780   1390.4702      4.8028645      0              14.148948      38790.465    
       790   1381.3392      4.5821985      0              13.866908      38015.398    
       800   1371.3282      4.6429004      0              13.860321      37707.144    
       810   1360.2468      4.7254378      0              13.868374      37537.699    
       820   1350.0634      4.7760465      0              13.850535      37567.399    
       830   1341.2497      4.8421968      0              13.857444      37660.893    
       840   1334.1368      4.9066837      0              13.874121      37877.983    
       850   1330.001       4.9204838      0              13.860122      37930.616    
       860   1329.1318      4.9214175      0              13.855214      37907.207    
       870   1330.8045      4.921065       0              13.866104      38014.939    
       880   1333.6946      4.8980747      0              13.86254       38129.273    
       890   1337.9646      4.8437526      0              13.836918      37978.434    
       900   1343.5365      4.8026214      0              13.833239      37979.995    
       910   1350.473       4.7041939      0              13.781436      38260.818    
       920   1358.7517      4.5912599      0              13.724147      38193.659    
       930   1368.1193      4.5324354      0              13.728287      38444.512    
       940   1377.9919      4.3934381      0              13.655649      38481.633    
       950   1387.0654      4.4064658      0              13.729664      38788.441    
       960   1394.1236      4.3649935      0              13.735634      38818.948    
       970   1397.9656      4.3477352      0              13.744199      38826.153    
       980   1397.4676      4.369276       0              13.762393      38877.291    
       990   1391.0232      4.4259163      0              13.775717      38887.736    
      1000   1379.6489      4.4609663      0              13.734314      38775.652    
Loop time of 21.2548 on 1 procs for 1000 steps with 53 atoms

Performance: 4.065 ns/day, 5.904 hours/ns, 47.048 timesteps/s, 2.494 katom-step/s
99.7% CPU use with 1 MPI tasks x 1 OpenMP threads

MPI task timing breakdown:
Section |  min time  |  avg time  |  max time  |%varavg| %total
---------------------------------------------------------------
Pair    | 21.123     | 21.123     | 21.123     |   0.0 | 99.38
Neigh   | 0.004949   | 0.004949   | 0.004949   |   0.0 |  0.02
Comm    | 0.038729   | 0.038729   | 0.038729   |   0.0 |  0.18
Output  | 0.082266   | 0.082266   | 0.082266   |   0.0 |  0.39
Modify  | 0.0010709  | 0.0010709  | 0.0010709  |   0.0 |  0.01
Other   |            | 0.004864   |            |       |  0.02

Nlocal:             53 ave          53 max          53 min
Histogram: 1 0 0 0 0 0 0 0 0 0
Nghost:          10068 ave       10068 max       10068 min
Histogram: 1 0 0 0 0 0 0 0 0 0
Neighs:            616 ave         616 max         616 min
Histogram: 1 0 0 0 0 0 0 0 0 0
FullNghs:        28656 ave       28656 max       28656 min
Histogram: 1 0 0 0 0 0 0 0 0 0

Total # of neighbors = 28656
Ave neighs/atom = 540.67925
Neighbor list builds = 7
Dangerous builds = 0
unfix  a1
min_style  cg
min_modify  dmax 0.5 line quadratic
dump    a10 all xyz 1 min_10.xyz
minimize 1e-12 1e-12 10000 100000
Per MPI rank memory allocation (min/avg/max) = 10.43 | 10.43 | 10.43 Mbytes
   Step          Temp          E_pair         E_mol          TotEng         Press     
      1000   1379.6489      4.7351953      0              14.008543      39377.059    
      1007   1379.6489      2.2411408      0              11.514489      23202.779    
Loop time of 1.27633 on 1 procs for 7 steps with 53 atoms

99.7% CPU use with 1 MPI tasks x 1 OpenMP threads

Minimization stats:
  Stopping criterion = linesearch alpha is zero
  Energy initial, next-to-last, final = 
      4.73519533448226   2.24114079920044   2.24114079920044
  Force two-norm initial, final = 2.6900702 0.36042642
  Force max component initial, final = 0.9872476 0.11372006
  Final line search alpha, max atom move = 1.1920929e-07 1.3556487e-08
  Iterations, force evaluations = 7 59

MPI task timing breakdown:
Section |  min time  |  avg time  |  max time  |%varavg| %total
---------------------------------------------------------------
Pair    | 1.2716     | 1.2716     | 1.2716     |   0.0 | 99.63
Neigh   | 0.0006971  | 0.0006971  | 0.0006971  |   0.0 |  0.05
Comm    | 0.002452   | 0.002452   | 0.002452   |   0.0 |  0.19
Output  | 0.00089752 | 0.00089752 | 0.00089752 |   0.0 |  0.07
Modify  | 0          | 0          | 0          |   0.0 |  0.00
Other   |            | 0.0007175  |            |       |  0.06

Nlocal:             53 ave          53 max          53 min
Histogram: 1 0 0 0 0 0 0 0 0 0
Nghost:          10096 ave       10096 max       10096 min
Histogram: 1 0 0 0 0 0 0 0 0 0
Neighs:            603 ave         603 max         603 min
Histogram: 1 0 0 0 0 0 0 0 0 0
FullNghs:        28644 ave       28644 max       28644 min
Histogram: 1 0 0 0 0 0 0 0 0 0

Total # of neighbors = 28644
Ave neighs/atom = 540.45283
Neighbor list builds = 1
Dangerous builds = 0
write_data ./StructureDump/sample.10.dat 
System init for write_data ...
variable etot equal etotal
variable ptot equal press
variable pairp equal epair
variable numat equal atoms
run 0
WARNING: No fixes with time integration, atoms won't move (src/verlet.cpp:60)
Per MPI rank memory allocation (min/avg/max) = 10.31 | 10.31 | 10.31 Mbytes
   Step          Temp          E_pair         E_mol          TotEng         Press     
      1007   1379.6489      2.2411408      0              11.514489      23169.903    
Loop time of 2.0223e-05 on 1 procs for 0 steps with 53 atoms

79.1% CPU use with 1 MPI tasks x 1 OpenMP threads

MPI task timing breakdown:
Section |  min time  |  avg time  |  max time  |%varavg| %total
---------------------------------------------------------------
Pair    | 0          | 0          | 0          |   0.0 |  0.00
Neigh   | 0          | 0          | 0          |   0.0 |  0.00
Comm    | 0          | 0          | 0          |   0.0 |  0.00
Output  | 0          | 0          | 0          |   0.0 |  0.00
Modify  | 0          | 0          | 0          |   0.0 |  0.00
Other   |            | 2.022e-05  |            |       |100.00

Nlocal:             53 ave          53 max          53 min
Histogram: 1 0 0 0 0 0 0 0 0 0
Nghost:          10096 ave       10096 max       10096 min
Histogram: 1 0 0 0 0 0 0 0 0 0
Neighs:            616 ave         616 max         616 min
Histogram: 1 0 0 0 0 0 0 0 0 0
FullNghs:        28634 ave       28634 max       28634 min
Histogram: 1 0 0 0 0 0 0 0 0 0

Total # of neighbors = 28634
Ave neighs/atom = 540.26415
Neighbor list builds = 0
Dangerous builds = 0
print "${etot} ${pairp} ${ptot} ${numat} " append Summary.dat screen no
