LAMMPS data file via write_data, version 7 Feb 2024, timestep = 657, units = metal

5 atoms
2 atom types

0 2.88 xlo xhi
0 4.553679830642466 ylo yhi
0 4.553679830642467 zlo zhi
1.4399999999999995 -1.4399999999999997 -1.3322676295501878e-15 xy xz yz

Masses

1 51.9961
2 55.845

Atoms # atomic

1 1 -0.010212860198501442 0.09731796921401656 0.3374648659488329 0 0 0
2 1 1.4515434242779754 1.8919043579559174 1.0153650103551433 0 0 0
3 1 2.89238213201306 3.6181484996676696 1.6449805606736438 0 0 0
4 2 0.007127560357090168 0.8812766632167317 2.6094467303857467 1 0 0
5 2 1.4196124057981059 2.6198119806873037 3.5026936749256077 1 0 0

Velocities

1 -2.8898973879614545 1.65442928596619 1.8590747994216845
2 1.521046692986943 2.5313702009267645 2.9229169043112067
3 2.0901908443691055 -2.5304564274473678 -0.7832220685072572
4 1.7345960695396907 0.117160582612181 -1.7250832983132247
5 -2.4062206472447034 -1.6584155428277536 -1.9980866511926523
