LAMMPS data file via write_data, version 7 Feb 2024, timestep = 151, units = metal

6 atoms
2 atom types

0 3.56 xlo xhi
0 3.5600000000000005 ylo yhi
0 5.34 zlo zhi
-8.881784197001252e-16 1.7799999999999998 8.881784197001252e-16 xy xz yz

Masses

1 51.9961
2 55.845

Atoms # atomic

1 1 3.548345073396145 3.556091874953375 0.04731928812504944 -1 -1 0
2 2 1.7986354980868122 1.7886230715908373 3.5024112915093686 0 0 0
3 1 1.7436303489801697 0.016977808162151622 1.7892893287498208 0 0 0
4 2 1.7931238346050153 1.760738989556629 0.07799721634017993 0 0 0
5 2 3.5763230149851113 3.5478004013470144 3.532849790958911 -1 -1 0
6 2 3.5566087272285216 1.7906184745288631 1.7338292703359548 -1 0 0

Velocities

1 -1.1738874262710648 -0.04211327097497114 3.318737308917866
2 1.8413009658785704 1.5992136477370313 -3.174552928902913
3 -3.662294969405105 1.2606269241061256 2.059513177657966
4 1.4799516055943849 -2.8484545877338663 1.2880404767196112
5 1.5414738992323962 -0.6094229421206677 0.017764426534253856
6 -0.3598591869052328 0.7241315558649694 -3.1388274085893904
