LAMMPS data file via write_data, version 7 Feb 2024, timestep = 148, units = metal

6 atoms
2 atom types

0 2.5173001410241094 xlo xhi
0 3.56 ylo yhi
0 7.551900423072327 zlo zhi

Masses

1 51.9961
2 55.845

Atoms # atomic

1 1 0.020317154401622295 0.009250304497039192 0.43714708089521587 0 0 0
2 2 1.1939219914832389 1.412082200971879 5.977590613990606 0 0 0
3 1 2.501305007957407 3.4351878602414483 4.538887313564663 -1 -1 0
4 2 1.2228029752897929 1.9156593488576843 3.5325958647403817 0 0 0
5 2 2.4685092890757137 0.26983048657060227 2.6818456759824745 -1 0 0
6 2 1.4040361197667284 1.8504098098381825 1.7062940557172628 0 0 0

Velocities

1 0.024022487856912897 -0.07894811316666504 6.640049282409111
2 -0.6488882634545915 -3.645412117184088 -6.006090231672976
3 0.007230588288813558 -2.34918158394735 -2.2474599593015627
4 -1.4008264260278889 2.833927190234814 5.043447395504913
5 0.2689934638685433 2.7664629012984725 -3.228174985758894
6 1.7516221465096133 0.3058023022039483 0.10097067888402667
