LAMMPS data file via write_data, version 7 Feb 2024, timestep = 66, units = metal

6 atoms
2 atom types

0 2.494153162899183 xlo xhi
0 2.3515101530718505 ylo yhi
0 12.218805178903542 zlo zhi
-0.8313843876330616 -1.7763568394002505e-15 0 xy xz yz

Masses

1 51.9961
2 55.845

Atoms # atomic

1 1 0.008080378035957162 0.0006214452609125491 0.025939268658209544 0 0 0
2 1 0.8205624816606344 1.1498659751078286 2.0508942313615326 0 0 0
3 2 -0.7989812041514706 2.3261322427727027 4.072446466898014 0 -1 0
4 1 0.8169680681496116 1.1946277195222517 6.064830809589474 0 0 0
5 2 0.007090923456349289 0.019273085856157442 8.15458885282938 0 0 0
6 2 0.8078705880808794 1.1879097682073863 10.176447422471597 0 0 0

Velocities

1 0.7049219014770877 -0.16124233924399273 1.6210769258980124
2 -0.8857289069179334 -2.0311290731297644 0.08041904179296153
3 3.2550320932375456 -2.6076275700947478 -1.1106465252664588
4 -1.525607347121544 1.667182438741231 -4.026846553003518
5 0.6917548061089847 1.893704798050616 1.7721858263107606
6 -2.3579805367846314 1.202915132898178 1.5035455153039787
