LAMMPS data file via write_data, version 7 Feb 2024, timestep = 553, units = metal

6 atoms
2 atom types

0 2.5173001410241094 xlo xhi
0 5.034600282048218 ylo yhi
0 5.339999999999999 zlo zhi
-5.172985656464782e-16 -1.2586500705120542 -1.2586500705120547 xy xz yz

Masses

1 51.9961
2 55.845

Atoms # atomic

1 1 -0.0033853672370771568 4.958008431347334 0.27391796875000013 0 -1 0
2 1 0.003383264188325019 -0.017988778295531027 3.3648666411430797 0 0 0
3 1 1.2586384575552247 1.3212466804569232 1.8335361305014883 0 0 0
4 2 1.25833534565285 1.2364290938079558 5.3142157089422595 -1 0 -1
5 2 0.00032351467685221014 2.600306411367507 3.3295125560809686 0 0 0
6 2 1.2586549966999883 3.7471489369484057 1.9039509945821904 0 0 0

Velocities

1 -0.2366278214462616 1.1547134951769682 1.0627905430608497
2 -1.3818795217712427 1.6278113361649063 1.8605936174269202
3 -0.42611104643978803 -1.320523874277665 1.5032603104487767
4 -1.298513903228191 3.0232608702786115 2.2842625123927878
5 1.9405098228275934 -2.3233198817807685 -4.1310107876970745
6 1.2617050787076893 -2.0611792007568877 -2.274806896604814
