LAMMPS data file via write_data, version 7 Feb 2024, timestep = 27, units = metal

6 atoms
2 atom types

0 4.072935059634514 xlo xhi
0 4.319999999999999 ylo yhi
0 4.072935059634515 zlo zhi
2.0364675298172568 -2.0364675298172568 1.4400000000000024 xy xz yz

Masses

1 51.9961
2 55.845

Atoms # atomic

1 1 0.011947424376924254 0.3987213819533275 0.47802559224822067 0 0 0
2 1 4.0892669238924295 2.551360904784869 0.9319977999721742 0 0 0
3 1 2.048745648393468 0.6389149273254762 1.297404631446149 0 0 0
4 2 2.0527157304060495 2.8289870811737052 1.599166505807846 0 0 0
5 1 1.977492487388688 4.926138495366541 2.6648440387273844 1 -1 0
6 2 0.0021694346287257638 3.0558772093960807 3.210899080884506 1 0 0

Velocities

1 -0.2654878387291496 0.16157830076130103 1.6733763362971044
2 -0.7181585598787694 -3.358917021866625 -3.1751575430929706
3 -1.2998105897426067 1.0489114674467372 -0.12396391682280666
4 2.5614282104468042 1.0901220854614595 -1.6268675815711815
5 3.2202720557564244 1.8694109024419048 1.1400704591539033
6 -3.433676933275057 -0.830335853936745 2.0790690037392654
