LAMMPS data file via write_data, version 7 Feb 2024, timestep = 35, units = metal

4 atoms
2 atom types

0 2.494153162899183 xlo xhi
0 4.0729350596345135 ylo yhi
0 4.703020306143703 zlo zhi
-4.440892098500626e-16 -0.8313843876330607 -2.220446049250313e-16 xy xz yz

Masses

1 51.9961
2 55.845

Atoms # atomic

1 1 0.07985823841357792 0.22281906239662827 0.6472953640446885 0 0 0
2 1 1.6030701989852338 2.29801251267872 0.7021510099149469 0 0 0
3 2 0.9406393706142927 3.8726939755901157 2.7983616327026684 0 -1 0
4 2 -0.1293221717522795 1.7529338206709097 2.9061671406170104 0 0 0

Velocities

1 -1.1477744245928214 -0.6362232296645393 2.292392333981523
2 1.290610040236944 1.5163275338307707 -2.880487405627879
3 1.8036652603060228 -2.6622347507972695 -1.6270017731106006
4 -1.9366564852069692 1.8427882218357177 2.174564673188155
