LAMMPS data file via write_data, version 7 Feb 2024, timestep = 136, units = metal

6 atoms
2 atom types

0 2.5173001410241094 xlo xhi
0 2.1800458710770285 ylo yhi
0 12.332201749890405 zlo zhi
-1.2586500705120545 0 -2.220446049250313e-15 xy xz yz

Masses

1 51.9961
2 55.845

Atoms # atomic

1 1 2.456651341763096 0.0705230534139044 0.4289022406979672 -1 0 0
2 2 -0.04682533244420817 1.394558174153649 10.073847555551652 0 0 0
3 1 1.0995670217967934 0.6321102395202153 7.876423411534491 0 0 0
4 2 0.03645838455840114 0.32866757810766795 6.006098545622888 0 0 0
5 2 0.20506619657186675 1.2635586792219187 4.240126358767535 0 0 0
6 2 1.26843125857845 0.6689864962974008 2.211066265766233 0 0 0

Velocities

1 -0.3615176956484051 0.49092681607417177 5.178200400529601
2 -0.4520699160092062 -0.5537691078755755 -7.164287010591914
3 -1.5024129115477092 -0.8068760889923564 -7.050558154721806
4 0.24408476265729465 2.8583282414946556 -3.6523184489772844
5 2.191645006814099 -2.345839863737826 4.7616743685412075
6 -0.24819343310530514 0.33545442498097416 7.798243849963494
