LAMMPS data file via write_data, version 7 Feb 2024, timestep = 177, units = metal

6 atoms
2 atom types

0 2.5173001410241094 xlo xhi
0 4.174470026242851 ylo yhi
0 6.440282320181032 zlo zhi
1.2586500705120538 1.2586500705120542 1.138491825338959 xy xz yz

Masses

1 51.9961
2 55.845

Atoms # atomic

1 1 1.2583323650753973 3.845517142211341 0.2195831530261767 0 -1 0
2 2 2.517321179357777 2.9949016798141073 4.914919052938216 0 0 0
3 2 2.5173726200295805 1.178941314669955 3.7095127103511563 0 0 0
4 2 3.7760119426090952 2.918937789385135 3.194861039137334 -1 0 0
5 2 2.5173636680744336 4.423048957643205 2.3317899207540593 0 -1 0
6 2 2.517399070998365 2.0955277714736305 1.7300399242456395 0 0 0

Velocities

1 -0.07648022879758554 1.3095141246529836 2.1355097174946915
2 -0.1778772051351163 -0.36310931799592516 2.076270054178418
3 0.8032270028004044 0.704445974567289 1.7789287950019548
4 -1.1269825619899545 2.826137306354192 -0.6072560023947375
5 3.0149681989741675 -2.801221661813849 -3.9634456925298283
6 -2.442126308951907 -1.585513244380916 -1.272825148200218
