LAMMPS data file via write_data, version 7 Feb 2024, timestep = 177, units = metal

6 atoms
2 atom types

0 2.5173001410241094 xlo xhi
0 4.360091742154058 ylo yhi
0 6.166100874945202 zlo zhi

Masses

1 51.9961
2 55.845

Atoms # atomic

1 1 0.0061905100514456635 0.07037854811293923 0.3529241368770021 0 0 0
2 1 1.0352584078155094 3.5347516043807463 3.8795952851517064 0 0 0
3 2 0.16636226043114882 3.0900325467512997 2.0358406590768707 0 0 0
4 1 1.4781821768133996 1.9404404204141117 0.10813873659973573 0 0 0
5 2 2.1815412201154873 1.3381302262145558 3.9378994340003395 -1 0 0
6 2 1.4238220199898362 0.9070706832398628 2.033182980865281 0 0 0

Velocities

1 1.5252269980303566 -1.6129351518279962 4.551331642814535
2 -0.4052321724141807 -0.03855578070080751 -0.41365010250001133
3 0.001672510768943522 1.0464051582920655 -3.5930984088197504
4 0.9314926585737331 -1.2721341464066158 2.337390936296334
5 -2.447104894581886 -0.433416251167961 -0.9496786177114029
6 0.5353357166683919 2.1091366541049057 -1.4860261966957347
