LAMMPS data file via write_data, version 7 Feb 2024, timestep = 23, units = metal

4 atoms
2 atom types

0 2.5173001410241094 xlo xhi
0 2.5173001410241094 ylo yhi
0 7.12 zlo zhi

Masses

1 51.9961
2 55.845

Atoms # atomic

1 1 2.5101018790321423 2.5053472352178536 0.06717802577866733 -1 -1 0
2 1 1.259454322623577 1.265628380494855 5.287089855907991 0 0 0
3 1 0.016765177292175186 0.03467402820754188 3.559227428734536 0 0 0
4 2 1.2492184247152953 1.2314754841617412 1.768074971310942 0 0 0

Velocities

1 -0.20884098247816926 -0.7585407343814706 3.635686728930184
2 0.2524137025344263 1.6169590695158642 -2.5888995901024296
3 1.297918462980867 2.7447889704332606 1.124780377559893
4 -1.2490341069445183 -3.3548702190173976 -2.021900648918325
