LAMMPS data file via write_data, version 7 Feb 2024, timestep = 1412, units = metal

6 atoms
2 atom types

0 2.88 xlo xhi
0 4.553679830642467 ylo yhi
0 5.464415796770961 zlo zhi
-1.4399999999999995 2.2204460492503127e-15 -1.8214719322569868 xy xz yz

Masses

1 51.9961
2 55.845

Atoms # atomic

1 1 0.0011271716941241344 0.2619501441083963 0.626983396301752 0 0 0
2 2 1.4411271716884788 -0.4621873575578661 4.110507365157083 0 0 0
3 1 0.001127171689559827 2.10534917044233 3.119565805621552 0 0 0
4 2 1.4411271717085505 3.6523128838514363 2.5003508132847694 -1 -1 0
5 2 1.4411271716849041 0.7371108238068257 2.244502413672854 0 0 0
6 2 0.001127171688447987 2.8341885980033292 1.052970042973434 0 0 0

Velocities

1 1.3835203716182216 -0.5081338349343169 4.025414544776158
2 -0.9172243233325345 -1.0831739492352628 -3.542364764998869
3 0.3127416064935603 -0.6989903411469196 -1.6869399456415084
4 -0.5109645599216251 2.96280658775394 -4.3558758297675215
5 -1.374296410023903 -2.7387687820572255 2.7104794992558254
6 1.2231315921392283 1.9830639682665843 3.010456787084298
