LAMMPS data file via write_data, version 7 Feb 2024, timestep = 418, units = metal

6 atoms
2 atom types

0 3.56 xlo xhi
0 3.5600000000000005 ylo yhi
0 5.34 zlo zhi
-8.881784197001252e-16 1.7799999999999998 8.881784197001252e-16 xy xz yz

Masses

1 51.9961
2 55.845

Atoms # atomic

1 1 3.561297122852167 3.5592753138258146 0.20754687500000016 -1 -1 0
2 1 1.7810124861528824 1.7661668745707202 3.489668793613313 0 0 0
3 1 1.7802539371390886 0.009028441003318465 1.7258372326778033 0 0 0
4 2 1.7771006197246402 1.7668965355102269 0.04852575460878384 0 0 0
5 1 3.5601488386655635 3.5579680531583104 3.473714198996624 -1 -1 0
6 2 3.560186995465656 1.8006647819316104 1.7347071451034803 -1 0 0

Velocities

1 -1.1602547921671276 0.00556792955523456 3.070946694617054
2 1.9516842151731704 1.751256729172559 -3.1216646853189647
3 -3.6471279408924335 1.236130483479299 2.235267568049268
4 1.5167644890425829 -2.8627847198734546 0.6503653536126136
5 1.6348130323066703 -0.5988086265293264 0.279261396217336
6 -0.38002379969256606 0.6336454657981992 -2.9443677130461734
