LAMMPS data file via write_data, version 7 Feb 2024, timestep = 173, units = metal

72 atoms
2 atom types

0 7.12 xlo xhi
0 10.68 ylo yhi
0 10.68 zlo zhi

Masses

1 51.9961
2 55.845

Atoms # atomic

1 2 7.11007148401654 0.0015942763936494006 0.030219705236359085 -1 0 0
2 2 0.03537025929949439 1.8122958661545543 1.8276950806774748 0 0 0
3 1 1.77285864121641 10.621815694508342 1.8256024466036158 0 -1 0
4 2 1.8147387039320264 1.7915442555651102 10.631731607708792 0 0 -1
5 1 0.010867349334355991 10.636359978450406 3.5968026004013547 0 -1 0
6 2 7.1043449559150655 1.7636601617640644 5.3551393203380355 -1 0 0
7 2 1.8146180693472662 0.03466985753396397 5.365482971073045 0 0 0
8 1 1.7708415736809673 1.7750706335813842 3.5841029402741986 0 0 0
9 1 0.03250695121900551 10.640396560221332 7.0844286050065515 0 -1 0
10 2 0.029057573454114763 1.746932122939392 8.813909779105963 0 0 0
11 2 1.7707511510912481 10.672714111388933 8.829341764994783 0 -1 0
12 1 1.7837766827225383 1.7926882068734682 7.074296418448287 0 0 0
13 1 7.104733342855788 3.5431204954903808 10.628576507154749 -1 0 -1
14 2 7.090547498053467 5.38608859381449 1.8036113685271364 -1 0 0
15 1 1.8096351398766675 3.5863206585574714 1.8365612714394695 0 0 0
16 2 1.7826712422777935 5.37527539065984 10.62579543079861 0 0 -1
17 1 7.076056942171019 3.59064411960748 3.608370350003284 -1 0 0
18 1 7.100985268872881 5.318814660248677 5.339630597173454 -1 0 0
19 2 1.7746004186261626 3.552104802803605 5.3611208480832255 0 0 0
20 2 1.7675161538432693 5.334549063257147 3.656768000820662 0 0 0
21 1 0.013387445394704359 3.5574423223407043 7.094608509089302 0 0 0
22 1 7.100681585304432 5.3731412409016 8.803468493350858 -1 0 0
23 2 1.74653163839961 3.5832176736795582 8.812214857410282 0 0 0
24 2 1.80683368270544 5.325101530857216 7.066794764089578 0 0 0
25 1 7.119517069216162 7.1197244394458 10.647146268262002 -1 0 -1
26 1 0.015094440245000082 8.863789931212601 1.8260525859009022 0 0 0
27 2 1.7822706812179812 7.119962652160811 1.8421583641422203 0 0 0
28 2 1.7814708861464 8.86999657066951 0.053887847510110894 0 0 0
29 1 7.0933091904667975 7.136366900830224 3.597975563593282 -1 0 0
30 2 7.086132101293808 8.891000848929982 5.338361385744308 -1 0 0
31 1 1.7843563084325504 7.078062257097862 5.35998924264632 0 0 0
32 2 1.823061031472668 8.872102505062822 3.6170968479506396 0 0 0
33 1 0.020077411810088618 7.091918465837077 7.08668764053421 0 0 0
34 2 7.090839287295521 8.934294130083828 8.831812581065819 -1 0 0
35 2 1.755555580345194 7.097265886442831 8.80388504591004 0 0 0
36 1 1.7618341460013054 8.86853552998412 7.0685764778742275 0 0 0
37 1 3.5371205313135796 10.656511876144755 0.03010731502988772 0 -1 0
38 2 3.5474219774277116 1.8011908156030774 1.8527938392839736 0 0 0
39 1 5.312585066191029 10.63677019071375 1.799615509482295 0 -1 0
40 1 5.354259750587437 1.7748935657680105 0.01842166525383415 0 0 0
41 2 3.5912605523095795 10.649425636773294 3.5842102196323355 0 -1 0
42 2 3.584540291780651 1.7978918908538102 5.384991774944604 0 0 0
43 1 5.362238098364079 0.06919768274647495 5.412591324789994 0 0 0
44 1 5.355667919803903 1.8255091584619785 3.6469275154199203 0 0 0
45 2 3.53638240964144 10.65741493977746 7.10130205484832 0 -1 0
46 1 3.5587691721148356 1.7937665329877015 8.834026268245514 0 0 0
47 1 5.305242042518839 0.002713288180430674 8.859172392408514 0 0 0
48 2 5.322688993801364 1.764684152845443 7.074484909916643 0 0 0
49 2 3.541141849788973 3.5791912879223613 0.03762220260855638 0 0 0
50 1 3.544543516823795 5.341247817811745 1.8341913746162986 0 0 0
51 2 5.313040409035713 3.5825663436088155 1.8414587101538373 0 0 0
52 1 5.374071873940037 5.388621819684999 0.03388164637193561 0 0 0
53 1 3.5772446809624436 3.6157506077942707 3.6528013097926753 0 0 0
54 1 3.557229605364046 5.351995498620217 5.372337691496237 0 0 0
55 2 5.361833629681882 3.5867577214727384 5.363546159547392 0 0 0
56 1 5.350921906140017 5.375319154659795 3.6043984214251212 0 0 0
57 2 3.587520392156601 3.602633553698845 7.077369264071572 0 0 0
58 2 3.5583812576542284 5.376404889950092 8.864222090337552 0 0 0
59 2 5.354993486105332 3.5783926077159465 8.79812708313306 0 0 0
60 1 5.356961416899085 5.357730623094718 7.047798655374038 0 0 0
61 1 3.570222010509965 7.08102013837656 10.658851810129162 0 0 -1
62 2 3.544871049968666 8.840387649040007 1.8522933164785813 0 0 0
63 2 5.3281670221102635 7.080362162837641 1.8580404766086038 0 0 0
64 1 5.303374832202842 8.873691047842783 10.63250428782191 0 0 -1
65 2 3.5790130342344755 7.113754542781324 3.620897477299359 0 0 0
66 1 3.571345763631973 8.882584521603897 5.316360792511591 0 0 0
67 1 5.315027972225405 7.134583654994674 5.339945306951859 0 0 0
68 2 5.371222302824752 8.858319552957505 3.59227508420264 0 0 0
69 1 3.596805423668382 7.122813280918496 7.078836257547225 0 0 0
70 2 3.53809798228917 8.89552827160486 8.815792480897954 0 0 0
71 2 5.308027888284169 7.144551643262604 8.801372043663427 0 0 0
72 2 5.351009760415342 8.881888106509612 7.057564559139608 0 0 0

Velocities

1 -0.04495467494611626 0.656767017337079 2.98089084044369
2 3.023978985731059 2.103843304266697 1.1597803437872345
3 -1.5098404461911896 -3.1756044961985386 1.1343343987638126
4 3.388527164940686 2.7988598608400985 -1.6947395481992258
5 0.6263983149186679 -2.2900955458181147 -0.29390455268966686
6 -1.6023712646519448 -3.060811080780753 -1.719183279455278
7 3.588475464583292 1.9716302618291992 -0.9786945859727489
8 -0.4738633417555066 -2.5825765223517525 -2.736178308016418
9 3.2638529656385518 -3.752578683086307 0.88662547811685
10 3.1079660647627474 -3.124183104302413 -1.4527425926281865
11 -0.9626043280345729 -0.7953322431806985 -0.5354369091641525
12 -0.3111565934070268 -0.9253973922155144 -0.9436313558550083
13 -1.389624337909219 -1.957932772673352 -3.2400558265686183
14 -3.0990699041845047 3.4203163290044425 -3.0342323193064806
15 2.7603005357458565 0.6918355993913129 0.35935149470106575
16 0.1464767236139539 3.5330773077260544 -3.118805236909065
17 -1.7706293198455736 0.7821769985468491 -0.8700138357067051
18 -2.0285024389803428 -2.9380656122477995 0.07876556907358613
19 -0.9484865166152024 -2.0799604082838767 -0.38051563375999375
20 -1.6938443920247086 -1.6790268783097235 3.1421216757232453
21 0.7365745047067491 -1.7610862761806436 2.4283203161016296
22 -1.6198974385360991 2.967951519776566 -1.9301337138472456
23 -3.389082378132965 2.086239808793017 -1.198691131358561
24 2.665781721831693 -1.9451148265092255 -0.5570955039868347
25 0.3732180426257267 -0.02443843315559124 -1.30659181236217
26 1.9775828228808832 -0.5660103137667157 -0.22853067631455212
27 1.8795272771410936 -0.1919321709350883 1.9689660474577713
28 0.3580437146432631 -2.9240759419727422 2.854707820677367
29 -2.4508354854606504 3.766139486290579 -0.7050172001104404
30 -2.374643699881367 2.051739434589595 -1.3231522492877736
31 0.1328479438522063 -1.6019614780046394 0.9606516874134594
32 3.5867427668648437 0.9508014604278892 0.7230243229876987
33 2.060277395264487 -2.4136349085853044 1.2702248988505194
34 -2.7066849857924082 3.629686694929122 -0.2636541855996025
35 -2.1183684884471567 -2.3097738432895794 -2.8026125145315883
36 -2.2647429121940243 -2.6814809836826576 -0.5212593208145104
37 -1.81456390164273 -1.6357432245955468 1.07420108747136
38 -1.5721482673202716 0.9766070039645498 3.307249420876767
39 -3.1216812294789893 -1.7697619088374228 -1.9719760966254467
40 1.029407094484876 -0.11195570220618038 1.8520644681351301
41 3.093034011408496 -1.3708644935446959 -1.7816122417172826
42 1.7531553153119142 -0.09454830068007897 0.7916869985119055
43 1.9776703011736874 3.8260862147025985 4.051345501164775
44 1.687862302993891 2.374899925190503 3.7442414394920847
45 -2.23940820903439 -2.1477746487614224 2.2577045973337095
46 0.26266415770527074 0.6307706368374365 0.6006497534709255
47 -3.953028945286074 0.4547056979100259 1.8683849832481254
48 -2.022370942989479 -2.450234737091858 -1.8864174937551488
49 -2.130847519325385 1.2144216947704525 2.896564841755236
50 -2.161842587409226 -1.809105720899332 -0.3792272257686301
51 -3.2662931182495503 0.5096284491173331 0.9733956180591884
52 3.2711314530601845 3.801031590202385 0.8653658049730754
53 2.603896293630261 2.542494311293568 3.4144391977708386
54 -0.4461038902904567 -0.4894729316405568 2.4061535726903585
55 1.3737958956778862 0.42881824941783575 -0.0049542314238208264
56 1.349761697271652 1.7299620350580747 -1.596589586607067
57 2.680429597791928 3.39947523648949 -0.8688865156745431
58 -0.18521085643640398 3.623021315705776 3.4778763741295475
59 1.226846109500927 1.3298676519763561 -2.8531526937769085
60 1.7984132904522916 0.8116861435154406 -2.61469535261397
61 1.3328702229986449 -3.7806524174356437 -0.41962099086690857
62 -2.069474042161168 -3.1825656156548474 2.7149749104147967
63 0.907867166451175 -2.988214354782829 2.3528069799086446
64 -3.5650117848786147 -1.8780416605089867 -2.9117749154200445
65 0.6440782503335574 0.6070045394785069 0.4013867853007415
66 1.6058066851142863 1.6329716174186837 -2.6605646947761197
67 -2.1875138495878446 3.2263859059428492 -0.8428526907067897
68 2.870637000536217 0.3645092078155696 -1.2736112266082213
69 3.2968914596595003 1.1807094882412084 0.6980593179363438
70 -2.158847940004448 -0.28158116801654465 -1.608541935435547
71 -3.845066803745674 3.2010302473652996 -2.9678230373237926
72 1.130163681176604 -1.0380315402404638 -1.114344569428365
