LAMMPS data file via write_data, version 7 Feb 2024, timestep = 18, units = metal

6 atoms
2 atom types

0 4.072935059634514 xlo xhi
0 4.319999999999999 ylo yhi
0 4.072935059634515 zlo zhi
2.0364675298172568 -2.0364675298172568 1.4400000000000024 xy xz yz

Masses

1 51.9961
2 55.845

Atoms # atomic

1 1 2.0354320483330666 4.358643020247686 0.15284366267907332 0 -1 0
2 1 4.075880248332656 2.3988065344858756 0.6973004137207702 0 0 0
3 2 2.0214903745559893 0.5017970728646631 1.326879977245253 0 0 0
4 1 2.063087497554025 2.9052461079150254 1.9776989471581383 0 0 0
5 2 2.058502253827652 5.249710742368981 2.664290920261511 1 -1 0
6 2 -0.03441634088181833 3.3044389116605526 3.3612138795414586 1 0 0

Velocities

1 -0.2600235630005943 0.24851083831259071 1.9906574474055405
2 -0.7107644119789739 -3.280074890873892 -3.0598383200911927
3 -1.259638761692964 1.0321386266966066 -0.22027848215228013
4 2.6696340515249535 1.1732440520917078 -1.839134964622665
5 3.1092604178929197 1.6479226828126776 0.9886354397206891
6 -3.431381356811675 -0.9498188065740671 1.9395144921274812
