LAMMPS data file via write_data, version 7 Feb 2024, timestep = 31, units = metal

8 atoms
2 atom types

0 3.56 xlo xhi
0 3.56 ylo yhi
0 7.12 zlo zhi

Masses

1 51.9961
2 55.845

Atoms # atomic

1 1 3.539109702501951 3.532610516461871 0.1062514571225341 -1 -1 0
2 1 0.004864302719071706 1.806858910931127 1.8441994312419203 0 0 0
3 2 1.7884725751293027 0.02629061845234348 1.8503785318652344 0 0 0
4 2 1.7850848877890162 1.734911117004925 0.1163292691442462 0 0 0
5 2 0.004063109560023703 0.011287395264738749 3.4630134058004383 0 0 0
6 1 3.558936634647724 1.7790259928526655 5.261694994796517 -1 0 0
7 2 1.777961265357982 3.5572419113053884 5.268916946851322 0 -1 0
8 1 1.781507522294929 1.7917735377269421 3.4492159631777852 0 0 0

Velocities

1 0.026278118619301186 0.042157822468411196 2.3113865834317897
2 3.5650004435116722 -3.7849642167981425 0.41525474422714415
3 -3.187617208221819 2.266113894353383 -1.8772474543732722
4 -0.4806985819055753 1.106558438930678 1.792711678257591
5 -2.254310176073958 -2.4953946481730784 1.9301531639137752
6 -1.0331934149803994 -0.45241705075809924 -1.999838934722286
7 3.4208675946399314 1.2290042538426753 -1.4679582681167938
8 0.12886053261863112 1.9330284942960005 -1.1324169205377983
