LAMMPS data file via write_data, version 7 Feb 2024, timestep = 210, units = metal

6 atoms
2 atom types

0 2.5173001410241094 xlo xhi
0 2.5173001410241085 ylo yhi
0 10.68 zlo zhi

Masses

1 51.9961
2 55.845

Atoms # atomic

1 1 2.5172203719110073 0.09530908098616547 0.43474318178660415 -1 0 0
2 1 1.2346451465983013 1.2860145360189355 7.926511726687042 0 0 0
3 1 0.012440600184579053 2.515676444564731 6.4949245343909805 0 -1 0
4 2 1.2705390279317148 1.2628664948544996 5.320388721041751 0 0 0
5 1 0.01019931370109628 0.00925265311621759 4.137845052073403 0 0 0
6 2 1.2471558615022962 1.1244379807286027 2.386133877550789 0 0 0

Velocities

1 -0.02752610570856794 1.6133599788907813 1.852258102972591
2 -2.668623504549134 3.041014011476393 1.7274289349881295
3 1.3047408980641388 -2.047632767375272 -0.5900907219471646
4 2.779574574156302 -2.2396518696724677 -1.9178513837569398
5 -0.13133692862608745 -2.052487228095982 -2.410583859088019
6 -1.361778269838589 1.7235976814012224 1.3787451144123968
