LAMMPS data file via write_data, version 7 Feb 2024, timestep = 135, units = metal

4 atoms
2 atom types

0 2.494153162899183 xlo xhi
0 2.3515101530718505 ylo yhi
0 8.145870119269027 zlo zhi
-0.8313843876330616 0 8.881784197001252e-16 xy xz yz

Masses

1 51.9961
2 55.845

Atoms # atomic

1 1 -0.8077233688441892 2.2957979953954237 0.33234781318044654 0 -1 0
2 1 0.9965341503590215 1.266237859464699 1.9038819188458882 0 0 0
3 2 -0.7694527509540647 2.2787532692640466 4.300615004418181 0 -1 0
4 2 0.5936730276502225 1.2161876069940631 5.695203622321685 0 0 0

Velocities

1 2.507719532708924 2.255668092592032 1.43253589747074
2 -0.7037505318567886 -2.2311395857927088 4.58089017697923
3 -0.08617899904374082 -2.910986217525355 -1.1622178423549028
4 -1.5934584360929358 2.888148242910107 -4.436756166235081
