LAMMPS data file via write_data, version 7 Feb 2024, timestep = 32, units = metal

5 atoms
2 atom types

0 2.5173001410241094 xlo xhi
0 3.56 ylo yhi
0 6.293250352560273 zlo zhi
0 -1.2586500705120542 -1.7799999999999994 xy xz yz

Masses

1 51.9961
2 55.845

Atoms # atomic

1 1 -0.018035674939949838 -0.01866186118346685 0.09216515741767065 0 0 0
2 1 1.2877991908147013 1.7785449554053503 1.2785024053614031 0 0 0
3 2 0.0032116645641747654 0.015199497079752544 2.5473716747032653 0 0 0
4 2 1.2658012770502982 1.7768275587993438 3.692509244861244 0 0 0
5 2 -0.02068893123335136 0.007201614354173991 4.979436636936754 0 0 0

Velocities

1 -1.903076634097222 -0.008523354148628082 2.184936043159323
2 3.0259249149744956 -1.2518192693240893 3.1973714668362607
3 0.29778483708937425 0.37966092255427575 -0.0632282327085985
4 0.7650204829290026 -0.37967918079456353 -4.869610916366042
5 -2.1082656387098067 1.1734966553098523 -0.07851369398169755
