LAMMPS data file via write_data, version 7 Feb 2024, timestep = 119, units = metal

5 atoms
2 atom types

0 2.88 xlo xhi
0 2.8799999999999994 ylo yhi
0 7.199999999999999 zlo zhi
0 -1.4399999999999993 -1.4399999999999997 xy xz yz

Masses

1 51.9961
2 55.845

Atoms # atomic

1 1 0.028988851110899244 -0.10383924630751865 0.7201732728465893 0 0 0
2 2 1.4313336533836707 1.610798351764286 2.134621346620465 0 0 0
3 2 -0.012072344729217921 0.15815294958507498 2.8520294518772675 0 0 0
4 2 1.4401521768808965 1.33002325954465 3.9784840284587375 0 0 0
5 2 -0.0031704243392848275 -0.11815571138638392 4.735300929742473 0 0 0

Velocities

1 0.7100372555142159 -1.2659844424199163 3.9261761269091893
2 -0.9601103454140907 1.5237032266765118 12.702039213726982
3 3.334230405488796 4.702025996769688 0.6704649818377879
4 -3.681862348891408 -4.89270253642154 -6.259975022493885
5 0.6466415968757474 -0.15429531149399275 -10.768108840227887
