LAMMPS data file via write_data, version 7 Feb 2024, timestep = 29, units = metal

6 atoms
2 atom types

0 2.5173001410241094 xlo xhi
0 3.56 ylo yhi
0 7.551900423072327 zlo zhi

Masses

1 51.9961
2 55.845

Atoms # atomic

1 1 2.509601701865306 0.0006516368916456901 0.06236991512660243 -1 0 0
2 1 1.2583125162868942 1.776465500596203 6.24130674216844 0 0 0
3 2 0.0009598216503163459 0.0015422111665430727 4.935293518537113 0 0 0
4 1 1.2601142638842033 1.7977201339900848 3.7323451733596746 0 0 0
5 2 0.0011473685323810656 0.012283389521712262 2.5378483821175557 0 0 0
6 2 1.2631146803411717 1.7513371278338028 1.3705873263714268 0 0 0

Velocities

1 0.2679660614898475 0.45482414715675956 2.334163074004672
2 -0.6881117763035381 -3.709306265664021 -0.9705665495182482
3 -0.18248552021782213 -0.9517104576111363 -2.96374569012949
4 -0.07528524733017782 0.49828570257707383 -3.8731078047144685
5 -0.7198751739052317 2.3454535077347005 2.25601942428639
6 1.363645998997775 1.1724932192353341 3.0442792155765677
