LAMMPS data file via write_data, version 7 Feb 2024, timestep = 111, units = metal

6 atoms
2 atom types

0 2.5173001410241094 xlo xhi
0 4.174470026242851 ylo yhi
0 6.440282320181032 zlo zhi
1.2586500705120538 1.2586500705120542 1.138491825338959 xy xz yz

Masses

1 51.9961
2 55.845

Atoms # atomic

1 1 1.2541851406410733 4.035424694475762 0.2414959866992247 0 -1 0
2 1 2.5143138424260463 2.9560276351062664 5.188810724138881 0 0 0
3 2 2.533780095438953 0.9186708715300068 3.8826000898824384 0 0 0
4 2 3.7645789446292457 2.875093981955869 3.080236307378212 -1 0 0
5 2 2.5311430560779953 4.49902460154346 2.2388085573317786 0 -1 0
6 2 2.50561958816425 2.173165744813397 1.4717266512117217 0 0 0

Velocities

1 -0.07723068597235157 1.1229206262115907 2.3603274263264566
2 -0.18450226888928664 -0.4888662166428306 1.9444417332024437
3 0.8027513604195385 0.7406770781523041 1.21937938513731
4 -1.1268315424684163 2.9402798761833444 -1.0511668714166538
5 3.008077684721576 -2.7331070785618 -3.5468843048784535
6 -2.4403034764522458 -1.5382045446856285 -0.629407852423198
