LAMMPS data file via write_data, version 7 Feb 2024, timestep = 125, units = metal

5 atoms
2 atom types

0 3.5599999999999996 xlo xhi
0 3.9802009999496257 ylo yhi
0 3.9802009999496257 zlo zhi
-1.7799999999999996 1.7799999999999994 2.220446049250313e-16 xy xz yz

Masses

1 51.9961
2 55.845

Atoms # atomic

1 1 3.5593588014272597 0.01829308726764345 0.080787555328258 -1 0 0
2 1 3.5729755155445146 1.5647591734919126 3.167501749683668 0 0 0
3 1 1.759982819198933 3.1750441159774625 2.383930775886781 1 0 0
4 2 1.8136668070940432 0.8041606577878219 1.5640756420256505 0 0 0
5 2 -0.02630084636313379 2.3979987025222194 0.7676922578474106 1 0 0

Velocities

1 -0.06793592044356285 0.1356213589884626 2.829156633733378
2 1.3153809549973334 -0.4746042780142528 -0.3800225977129816
3 -1.7086931460819637 0.02614663114041811 2.7846422632559804
4 3.352160722564041 -0.03583306821934713 -1.196347367195388
5 -2.9227023479229635 0.3271083284667559 -3.6767112026820272
