LAMMPS data file via write_data, version 7 Feb 2024, timestep = 127, units = metal

4 atoms
2 atom types

0 2.5173001410241094 xlo xhi
0 2.5173001410241094 ylo yhi
0 7.12 zlo zhi

Masses

1 51.9961
2 55.845

Atoms # atomic

1 1 2.514810771669174 2.4760394097632914 1.0171358419135152 -1 -1 0
2 1 1.259942734333987 1.2861514808000767 4.319572612348087 0 0 0
3 2 0.001242658978944337 0.02051180037808044 3.083670976786978 0 0 0
4 2 1.2582358582769118 1.2521290742036835 2.266682704456141 0 0 0

Velocities

1 -0.2626558012184529 -1.9589993243716317 7.188886634404151
2 0.16900755174090512 0.944062252763266 -5.858261963241267
3 -1.318548504248572 -0.10384252309854594 -5.121151402970788
4 1.4057424113962047 1.0488289940280104 3.8822348757212115
