LAMMPS data file via write_data, version 7 Feb 2024, timestep = 36, units = metal

6 atoms
2 atom types

0 2.494153162899183 xlo xhi
0 4.0729350596345135 ylo yhi
0 7.054530459215555 zlo zhi

Masses

1 51.9961
2 55.845

Atoms # atomic

1 1 0.016822695889607164 4.072931300156505 0.05359427402220812 0 -1 0
2 2 0.8163017691131338 2.0394670617570294 1.3133532660596907 0 0 0
3 1 1.6403658373257604 0.02876766359919756 2.3262305323407673 0 0 0
4 2 2.47416182702212 2.0441597693312863 3.507192511411368 -1 0 0
5 2 0.8604520644281897 4.063760530265145 4.616459926291892 0 -1 0
6 2 1.6729773389972686 2.0096632826943606 5.817398235275681 0 0 0

Velocities

1 0.8269478931953437 2.0517503446839838 1.7595138861001967
2 0.17248486070462038 -1.7909960005039958 2.8516664427468337
3 -2.8141033917988856 2.9170622253360023 -4.665313725502034
4 -1.7597075017229087 -0.33280030632964724 -0.20175269754307906
5 2.782979550847143 -0.8681310341909014 -0.05170102432355596
6 0.6544416042894992 -1.6344290968305224 0.10731613630526184
