LAMMPS data file via write_data, version 7 Feb 2024, timestep = 270, units = metal

6 atoms
2 atom types

0 2.5173001410241094 xlo xhi
0 2.5173001410241085 ylo yhi
0 10.68 zlo zhi

Masses

1 51.9961
2 55.845

Atoms # atomic

1 1 2.5169778518044748 0.01837060095486037 0.030970561239997408 -1 0 0
2 1 1.2318435062550286 1.2893587911238473 8.90278198671653 0 0 0
3 2 0.01264187654800236 2.4980587430642913 6.983187461990596 0 -1 0
4 2 1.2858297219319852 1.2390045745229632 5.248913517912419 0 0 0
5 2 2.516294518491362 2.503227000177439 3.633276863120366 -1 -1 0
6 2 1.245092935656565 1.26571734058757 1.9036497165617385 0 0 0

Velocities

1 -0.034127022617318786 1.5851187976875831 1.7069823798638295
2 -2.6792147588426922 3.0604219349830046 2.265319608944773
3 1.2549788391709846 -1.932247016557197 -1.9920840137538582
4 2.772435617351991 -2.2126666724329804 -2.891943241226743
5 -0.1320497958017966 -1.954210578807792 -1.4121563233453664
6 -1.3690294363864508 1.773759409887444 2.597657095376894
