LAMMPS data file via write_data, version 7 Feb 2024, timestep = 164, units = metal

4 atoms
2 atom types

0 3.56 xlo xhi
0 3.56 ylo yhi
0 3.56 zlo zhi

Masses

1 51.9961
2 55.845

Atoms # atomic

1 1 0.01113127834473231 0.07941601562500004 0.07064785709744066 0 0 0
2 1 3.5599930491113105 1.7081474337278348 1.7265715747400092 -1 0 0
3 1 1.7562808037774729 3.5134635251047954 1.8218810634564182 0 -1 0
4 2 1.7925948687664834 1.8189730255423702 3.500899504706132 0 0 -1

Velocities

1 -0.07532076120021018 0.8718801232653387 -0.16207413149539635
2 -0.23378260222712346 -0.8257336115697499 -0.9988516958214827
3 -3.160918754724824 -3.1068651235321068 1.0265916068132168
4 3.230864304013813 2.849770454166223 0.1250757554432885
