LAMMPS data file via write_data, version 7 Feb 2024, timestep = 23, units = metal

6 atoms
2 atom types

0 2.5173001410241094 xlo xhi
0 4.174470026242851 ylo yhi
0 6.440282320181032 zlo zhi
1.2586500705120538 1.2586500705120542 1.138491825338959 xy xz yz

Masses

1 51.9961
2 55.845

Atoms # atomic

1 1 3.7763733167959677 4.114199451071848 0.3932327208582645 -1 -1 0
2 1 2.5140333354968254 2.9873505186833365 5.225103764134132 0 0 0
3 1 2.528058677020734 0.795311155841895 4.019652440720595 0 0 0
4 2 1.247855216507102 2.6995934909018056 3.0186905060142735 0 0 0
5 1 1.2861810928948851 0.38899623040279546 2.189264791441979 0 0 0
6 2 2.495257177716851 2.2959998548226115 1.2561780181306077 0 0 0

Velocities

1 -0.05383723120583487 1.156215262964938 2.7315128098750607
2 -0.1622816591642076 -0.4797883060642865 1.8843454888571545
3 0.8574580137810823 0.7418949236172154 1.4128424510357993
4 -1.1045480455253422 2.8611182016830807 -0.9365169489620722
5 3.142006247960434 -2.861465624119004 -3.95559761660359
6 -2.41804492187314 -1.517437542597056 -0.9937055923993869
