LAMMPS data file via write_data, version 7 Feb 2024, timestep = 34, units = metal

6 atoms
2 atom types

0 3.5599999999999996 xlo xhi
0 3.9802009999496257 ylo yhi
0 4.776241199939551 zlo zhi
1.7799999999999996 0 -1.5920803999798498 xy xz yz

Masses

1 51.9961
2 55.845

Atoms # atomic

1 1 3.5825515679957576 0.014567376294907071 0.11252272847098832 -1 0 0
2 2 3.5615647415198053 2.420900786803443 0.8903830100310396 -1 0 0
3 1 1.7621241940647072 0.7784365690799692 1.5585411826252722 0 0 0
4 2 1.7868910475253654 3.1905670732199813 2.3448503856690777 0 -1 0
5 2 3.555347207910221 1.5621615671260738 3.0944544654200374 -1 0 0
6 2 1.7713142727520848 -0.006373500475485239 3.9417769941499206 0 0 0

Velocities

1 2.1288991733316025 2.2644406209178984 4.573191243123793
2 -1.1873955650766557 1.192724768222484 -0.4529585289270983
3 -2.4157902979498638 -2.4606592848266797 -1.6781903474882232
4 0.7366413222713265 -0.6785517759316931 -0.9580378107201857
5 -0.9823778564482214 -2.4199966487190205 -2.5401764099099107
6 1.7002503659697044 2.0885187100671794 1.2556985608284534
