LAMMPS data file via write_data, version 7 Feb 2024, timestep = 141, units = metal

5 atoms
2 atom types

0 2.494153162899183 xlo xhi
0 2.3515101530718505 ylo yhi
0 10.182337649086286 zlo zhi
-0.8313843876330616 -0.8313843876330616 -1.1757550765359248 xy xz yz

Masses

1 51.9961
2 55.845

Atoms # atomic

1 1 0.0005288519766296382 0.019159907625027044 0.036908598944971366 0 0 0
2 1 0.7942023122542594 1.1847153026770258 2.0779883473399874 0 0 0
3 1 -0.0004512135250708815 -0.03556990008812355 4.068581232466597 0 0 0
4 1 0.8434346247663587 1.1959979924606974 6.046421965734176 0 0 0
5 2 0.02332989445974676 -0.011893598179203435 8.134593464130983 0 0 0

Velocities

1 0.08877294870319914 1.331802511406021 1.0625115738823931
2 -3.766531767217707 2.1425184989917465 -0.8063754591764339
3 -0.02305134845301276 -3.9663003545470534 0.7810707467201343
4 1.1985479994629025 1.7952904942623 -1.0463585917989149
5 2.3298034539849026 -1.213485484687818 0.008520982856801036
