LAMMPS data file via write_data, version 7 Feb 2024, timestep = 25, units = metal

6 atoms
2 atom types

0 2.5173001410241094 xlo xhi
0 4.360091742154058 ylo yhi
0 6.166100874945202 zlo zhi

Masses

1 51.9961
2 55.845

Atoms # atomic

1 1 0.003790105959135648 4.316812719287051 0.28414718195357663 0 -1 0
2 1 1.2288292129519576 3.675573469294016 3.948668020514773 0 0 0
3 1 0.023486439810587966 2.9725175002975246 2.142949370416336 0 0 0
4 1 1.2761384337041835 2.1170178439862832 6.1148360723728805 0 0 -1
5 1 2.4808341529685944 1.4179613707263972 3.9532156320195373 -1 0 0
6 2 1.2786815835049894 0.7594889126779643 2.054650143893176 0 0 0

Velocities

1 -0.24746159916327834 1.8284201946574683 3.4304610539680027
2 -3.0212836556028146 -1.3418326439151587 -2.2082799355222305
3 2.385751872176913 2.187594091555915 0.5966182880903446
4 2.6853538317136443 -2.399887093981607 0.39345059943356825
5 -3.9647923851804325 -1.703019602889024 -1.7673749421439187
6 2.0133947030237187 1.3302557222679223 -0.4142137757398335
