LAMMPS data file via write_data, version 7 Feb 2024, timestep = 283, units = metal

6 atoms
2 atom types

0 2.88 xlo xhi
0 4.0729350596345135 ylo yhi
0 6.10940258945177 zlo zhi
-8.881784197001252e-16 0 -2.036467529817253 xy xz yz

Masses

1 51.9961
2 55.845

Atoms # atomic

1 1 0.006516319540084715 -0.012347621058522927 0.07936084931695915 0 0 0
2 1 1.439947229688366 0.02526504023398135 2.0212886834335078 0 0 0
3 2 5.33954596387577e-05 0.0177569500651662 4.015735116387738 0 0 0
4 2 1.4333236134356215 1.9816029449962662 0.13931652832031274 0 0 0
5 2 0.00019700367507528673 2.058207910897933 1.9700929920138384 0 0 0
6 2 1.4399624382012113 2.0389173643169585 3.9930110094311866 0 0 0

Velocities

1 -2.286011237943799 2.268826517473656 2.1514256052175256
2 0.5168773820822045 -0.683900537018656 2.22685611719351
3 2.504523864462051 1.6476932456427869 -0.4859572782998137
4 -2.993090811645888 -3.6187675246018896 0.5688221671679682
5 -0.23519304959909726 -0.666714096383022 -2.131566661654199
6 2.3709631641706186 1.1620972700983927 -2.027823865438622
