LAMMPS data file via write_data, version 7 Feb 2024, timestep = 140, units = metal

6 atoms
2 atom types

0 2.5173001410241094 xlo xhi
0 2.1800458710770285 ylo yhi
0 12.332201749890405 zlo zhi
-1.2586500705120545 0 -2.220446049250313e-15 xy xz yz

Masses

1 51.9961
2 55.845

Atoms # atomic

1 1 0.0019779419419176797 0.1597829599406036 0.38435444056437346 0 0 0
2 1 -0.3462830568508881 2.0017297618040564 6.362369539486232 0 0 0
3 1 1.606497982609611 1.047824903792662 6.3613619870070455 0 0 0
4 1 1.005371410749462 2.024297071542721 6.373425207028876 -1 -1 0
5 1 0.2596985860417411 1.018832721114539 6.346354727862945 0 0 0
6 2 1.2486873470443185 0.28767019503656027 5.0026384727764786 0 0 0

Velocities

1 -0.6828227727194293 0.75984107138713 3.2950342441199245
2 -0.472089477427485 -0.6148929210218796 2.7624468454114033
3 -1.6084016899605056 -1.0308057585632244 0.15832054595931486
4 0.34614526813803304 3.170307124480804 1.4863429273470656
5 1.9936580886482458 -1.0450992492862887 -3.2031260278382137
6 0.3943217591803097 -1.1539328573333127 -4.188941134348416
