LAMMPS data file via write_data, version 7 Feb 2024, timestep = 25, units = metal

6 atoms
2 atom types

0 2.5173001410241094 xlo xhi
0 2.5173001410241085 ylo yhi
0 10.68 zlo zhi

Masses

1 51.9961
2 55.845

Atoms # atomic

1 1 1.3172847917882114e-07 0.004131127109111135 0.030310588775652573 0 0 0
2 1 1.2586496034874028 1.2590711389871627 8.817267761230454 0 0 0
3 1 6.064450831218586e-07 2.344353682870448e-05 7.040063861524566 0 0 0
4 1 1.258665730435748 1.2609518574525176 5.379854561062061 0 0 0
5 1 2.5169574238196293 0.004342822797623214 3.63566730172879 -1 0 0
6 2 1.258976856643931 1.2474298216529138 1.7968359256784556 0 0 0

Velocities

1 -0.010566364307509743 1.530698642267509 1.4453856737759194
2 -2.651717344694853 3.0220122586748808 2.563740188884465
3 1.3224629387803672 -2.0573437371105006 0.05437276019373442
4 2.898568479578529 -2.3913119306795583 -1.8516191725294202
5 -0.11481820820084947 -2.1915963870414754 -3.112169240138232
6 -1.3444122613491103 1.9436654775133921 0.8382408083109232
