LAMMPS data file via write_data, version 7 Feb 2024, timestep = 23, units = metal

3 atoms
2 atom types

0 2.5173001410241094 xlo xhi
0 3.56 ylo yhi
0 3.7759502115361636 zlo zhi
0 -1.258650070512054 -1.7799999999999998 xy xz yz

Masses

1 51.9961
2 55.845

Atoms # atomic

1 1 0.0168652574388926 0.015316179892698824 0.064091502558261 0 0 0
2 2 1.2649280546400148 1.7856320270300516 1.2633157181528576 0 0 0
3 2 -0.022835401970763725 -0.021617053715416334 2.4495818142554078 0 0 0

Velocities

1 0.4457466487019351 -0.9586464042626498 1.6066585822582444
2 -0.2844629128525902 -0.3480632307538982 2.5962975320067865
3 -0.13056237715673324 1.2406386502306852 -4.092223403776112
