LAMMPS data file via write_data, version 7 Feb 2024, timestep = 152, units = metal

6 atoms
2 atom types

0 2.5173001410241094 xlo xhi
0 3.56 ylo yhi
0 7.551900423072327 zlo zhi

Masses

1 51.9961
2 55.845

Atoms # atomic

1 1 0.02109936604062506 0.003832665979555981 0.6418167011641794 0 0 0
2 1 1.193679755733211 1.4089092340097957 5.75197060036428 0 0 0
3 1 2.4864270781153404 3.3712178259224164 4.651263769591363 -1 -1 0
4 2 1.21980192608542 1.8863150802161197 3.6258100808998557 0 0 0
5 1 2.483276450107681 0.34664294476855384 2.6871109889815012 -1 0 0
6 2 1.3979786504360896 1.8710346144403733 1.516714512892567 0 0 0

Velocities

1 0.2563139534922785 0.6667023569974632 9.644657181648002
2 -0.6531837851723399 -3.827305684603204 -6.293053358273988
3 -0.03417323171691243 -2.2769256457457683 -2.6095771808511103
4 -1.3148887563936171 2.446917782263842 3.580563859857134
5 -0.032719161483940766 2.859672178784092 -3.6672740238321344
6 1.746687968876927 -0.04672976765184169 -0.8569278071524712
