LAMMPS data file via write_data, version 7 Feb 2024, timestep = 9, units = metal

5 atoms
2 atom types

0 2.5173001410241094 xlo xhi
0 4.174470026242852 ylo yhi
0 5.366901933484192 zlo zhi
1.2586500705120547 1.2586500705120542 1.1384918253389573 xy xz yz

Masses

1 51.9961
2 55.845

Atoms # atomic

1 1 3.7424597496677037 4.118709391714603 0.055578644126740774 -1 -1 0
2 2 2.5205262616783486 3.8005773471815796 2.143551111931113 0 0 0
3 1 3.7642450705312007 3.4043024793762418 4.21880429005272 0 0 0
4 2 1.289202787235623 1.9297386094881541 1.2082009433374634 0 0 0
5 2 2.528716906519726 1.5470659016458916 3.1076688775203474 0 0 0

Velocities

1 0.09180376369759241 1.3482414138626144 2.3528711663377484
2 3.0181928568111456 1.4596286866472556 0.0882429462465338
3 0.267831292479805 1.9388672139117202 -2.5049602189343703
4 -3.377167884630604 -0.9734696586282859 0.7858239633038243
5 0.024126422850247683 -3.5467164444504693 -0.7324600049444097
