LAMMPS data file via write_data, version 7 Feb 2024, timestep = 195, units = metal

2 atoms
1 atom types

0 5.034600282048219 xlo xhi
0 2.1800458710770285 ylo yhi
0 2.0553669583150675 zlo zhi
1.2586500705120545 1.2586500705120545 0.7266819570256753 xy xz yz

Masses

1 55.845

Atoms # atomic

1 1 5.283687667737402 0.2197286221100111 0.3552549816347352 -1 0 0
2 1 4.785512896359035 2.6869992059926924 1.7001119766803354 0 -1 -1

Velocities

1 3.804171521550585 1.838312663792999 3.434626398201371
2 -3.8041715215505896 -1.838312663793001 -3.434626398201384
