LAMMPS data file via write_data, version 7 Feb 2024, timestep = 471, units = metal

3 atoms
2 atom types

0 2.5173001410241094 xlo xhi
0 3.56 ylo yhi
0 3.7759502115361636 zlo zhi
0 -1.258650070512054 -1.7799999999999998 xy xz yz

Masses

1 51.9961
2 55.845

Atoms # atomic

1 1 0.024097168208615932 1.0031403595036208 0.45848991613157847 0 0 0
2 1 1.2769370006236707 2.782581192575684 0.8076520008620062 0 0 0
3 2 -0.04238409832023038 1.5542784479207254 2.509808294542574 0 -1 0

Velocities

1 0.44840251397182895 -1.0042156385059047 1.4285878635776816
2 -0.3100578936301321 -0.4666224015374886 2.702003649400475
3 -0.12880975402898934 1.3694662335732883 -3.845906515676668
