LAMMPS data file via write_data, version 7 Feb 2024, timestep = 111, units = metal

6 atoms
2 atom types

0 2.5173001410241094 xlo xhi
0 4.360091742154058 ylo yhi
0 6.166100874945202 zlo zhi

Masses

1 51.9961
2 55.845

Atoms # atomic

1 1 0.049755874014370295 0.0971912993050582 0.3267658623203374 0 0 0
2 2 1.066207651466585 3.5363607348186266 3.8577442512459914 0 0 0
3 1 0.15036993268397444 2.9924602954375863 1.9455810531072897 0 0 0
4 2 1.4664197452108931 2.0511098861365946 0.24131992750870568 0 0 0
5 2 2.234409243088038 1.3879347484856155 3.951999959986233 -1 0 0
6 2 1.3401295972615341 0.8555922836018186 2.032249942258584 0 0 0

Velocities

1 1.4362182247196675 -1.2714043228111078 4.206027779053356
2 -1.0730567943000076 -0.6481558269187975 -1.6137698151506361
3 0.5186769174198218 0.8924541871568716 -4.327487240648594
4 1.6442757768558889 -0.8060749061066832 3.736014460624346
5 -2.67680475922632 -0.34493334331027486 -1.9028717275537714
6 0.2854241990860755 2.1519965438528326 -0.10628457856900575
