LAMMPS data file via write_data, version 7 Feb 2024, timestep = 24, units = metal

6 atoms
2 atom types

0 2.5173001410241094 xlo xhi
0 5.034600282048218 ylo yhi
0 5.339999999999999 zlo zhi
-5.172985656464782e-16 -1.2586500705120542 -1.2586500705120547 xy xz yz

Masses

1 51.9961
2 55.845

Atoms # atomic

1 1 0.0049569261497613825 0.008770507448264474 0.052931014812520535 0 0 0
2 1 -0.011740603032506569 0.015622250403271365 3.5608827110055286 0 0 0
3 1 1.2576896355911291 1.2617874191865086 1.7859251433686656 0 0 0
4 1 2.491245341743502 2.5382754068637943 0.06712237260152173 -1 0 0
5 2 0.019243210663017374 2.4970899915015705 3.493609078044561 0 0 0
6 2 1.2708531170212092 3.7508229415905996 1.724351932072435 0 0 0

Velocities

1 -0.3014563620379148 0.9961590003679496 1.4880081528015086
2 -1.3547868649920116 1.6278524179135985 1.5298912890129253
3 -0.4065428021735983 -1.1186370812651185 1.7215809963241067
4 -1.3496446685883245 3.0269530942165774 2.3858261554092945
5 1.927381058247441 -2.127517087018937 -4.373118891173384
6 1.2498610906549628 -2.0924372570966434 -2.261103584764882
