LAMMPS data file via write_data, version 7 Feb 2024, timestep = 52, units = metal

6 atoms
2 atom types

0 4.072935059634513 xlo xhi
0 4.072935059634512 ylo yhi
0 4.32 zlo zhi
0 -2.036467529817256 -2.8769013915096585e-15 xy xz yz

Masses

1 51.9961
2 55.845

Atoms # atomic

1 1 0.012007504186292484 0.015008724586018108 0.20282514265379503 0 0 0
2 1 -0.0022077883619346927 2.094834746672083 1.4974305922812157 0 0 0
3 1 -0.021064085860257542 0.03659432430240684 2.8617958827244276 0 0 0
4 1 -0.02159767810877633 1.944450638487706 4.188607728562231 0 0 -1
5 1 2.047756161438789 4.065213675024285 1.4132782270300603 0 -1 0
6 2 2.056441738740712 2.0263274674668366 2.7959618710536986 0 0 0

Velocities

1 0.9555496187692399 1.2831601784554665 2.1651500608226835
2 -0.2531158167043262 0.3875456164228778 1.5079237610110587
3 -2.116696378942224 2.445077529054449 2.7613233360523033
4 -1.9630579075148442 -2.3836172392335695 -2.920456533792573
5 1.059009067949819 -1.561598806068982 -3.5184143750885464
6 2.1585307948872243 -0.15881159058798475 0.004165415061599875
