LAMMPS data file via write_data, version 7 Feb 2024, timestep = 7, units = metal

16 atoms
2 atom types

0 3.56 xlo xhi
0 7.12 ylo yhi
0 7.12 zlo zhi

Masses

1 51.9961
2 55.845

Atoms # atomic

1 1 0.0011576551882266524 7.116124816605898 0.07264590092606132 0 -1 0
2 2 0.005947835060967436 1.7761749601566694 1.8349172050224516 0 0 0
3 2 1.7842317033006216 0.043517571986574695 1.837385767548104 0 0 0
4 2 1.754374114040448 1.7783029709536882 0.07880075440706719 0 0 0
5 2 0.005592905046157209 0.011225623375912508 3.5146273114263153 0 0 0
6 2 3.5585193566147315 1.7789691431711363 5.293997893773483 -1 0 0
7 2 1.780585458144358 0.003121945407261976 5.280854409346737 0 0 0
8 1 1.7817689610406133 1.781807683237966 3.479827253464487 0 0 0
9 1 0.00396163055328111 3.549749694199229 0.1008793830871582 0 0 0
10 2 0.0018781325960305032 5.324918190250285 1.8151347057460494 0 0 0
11 1 1.7787992596983055 3.583137172070294 1.822455307727995 0 0 0
12 1 1.7813326306153021 5.2989421531601595 0.06814532867164429 0 0 0
13 1 0.00010772312174736535 3.573200194003408 3.472024495858436 0 0 0
14 1 3.5598744107338303 5.33317275132818 5.290150221697244 -1 0 0
15 1 1.7808744087495514 3.558700957128012 5.282758930894939 0 0 0
16 2 1.7809938154958278 5.328934172965325 3.4753951304018273 0 0 0

Velocities

1 0.37323537232408105 0.8422635815418671 2.50990336201885
2 3.7951344595713423 -2.8786817342298683 0.597514721638576
3 -2.8470664705902595 3.070652843954756 -1.6870802169377
4 -0.1347519256379724 1.9087859533708256 1.9901945404351706
5 -1.911899002462182 -1.7003471965541415 2.127909999260185
6 -0.6506189168495917 0.3433839879759332 -1.7375131627845788
7 3.774591556600106 2.0314758493749423 -1.276975161623991
8 0.4760222721007254 2.7369034779768278 -0.9407649524867046
9 -1.106193471219348 -1.302249471831826 -1.7479284447402441
10 0.0822688202610472 -2.4456992854955706 2.6748995386400023
11 -2.2206369148531047 -1.4714024231182936 -0.7204764011475232
12 0.5606818478464647 3.619840878996676 -3.4382541571492453
13 1.764632977316942 -2.7202919794392457 -1.634203577388655
14 -1.4839146434033894 -2.5479112071057597 -0.2550728311619481
15 -2.854312217399996 -1.5354727314796093 3.75516667341936
16 2.073337011891557 1.8848329843137797 -0.3876674628393921
