LAMMPS data file via write_data, version 7 Feb 2024, timestep = 8, units = metal

4 atoms
2 atom types

0 2.494153162899183 xlo xhi
0 4.703020306143701 ylo yhi
0 4.072935059634514 zlo zhi
-0.8313843876330612 -0.8313843876330616 2.3515101530718487 xy xz yz

Masses

1 51.9961
2 55.845

Atoms # atomic

1 1 -0.8260652826508128 4.707978181784879 0.03009490966796875 0 -1 0
2 1 -0.00825566620480056 4.695233562815503 4.055126987684308 0 0 -1
3 1 1.6642430139345574 1.1833552483617176 2.0386858512067496 -1 0 0
4 2 0.0014623225541137708 3.5224939254690026 2.0219623707100003 0 -1 0

Velocities

1 0.07864504971238345 1.3535869862219605 1.4202640767438235
2 -2.659414753924156 -0.6232000855530995 -0.3835915073249992
3 -0.8912769230996533 1.0639835654816678 -3.2910031032124922
4 3.2327492817324313 -1.6707004422062761 2.0989595463907054
