LAMMPS data file via write_data, version 7 Feb 2024, timestep = 211, units = metal

6 atoms
2 atom types

0 3.5599999999999996 xlo xhi
0 3.9802009999496257 ylo yhi
0 4.776241199939551 zlo zhi
1.7799999999999996 0 -1.5920803999798498 xy xz yz

Masses

1 51.9961
2 55.845

Atoms # atomic

1 1 3.5616822967256883 -0.02921130738314331 0.10310351562500006 -1 0 0
2 1 3.562014230755099 2.3969090821327543 0.8486005263257405 -1 0 0
3 2 1.7871858533950729 0.814497589620725 1.5860402818939323 0 0 0
4 1 1.7834203607039314 3.2012312271275274 2.3367430531015003 0 -1 0
5 2 3.559429418128639 1.6030380526829289 3.133590334990115 -1 0 0
6 2 1.766267840291579 -0.026062644281536373 3.9325252879125867 0 0 0

Velocities

1 2.1558440192134563 2.3084386192216195 4.301110597966606
2 -1.305202264627464 1.1186932439737207 -0.9608829591248603
3 -2.262418992477652 -2.330869396065045 -1.4783493671472872
4 0.6931979450070392 -0.7797223135596498 -0.8747136389303458
5 -0.962861382070716 -2.370088933343427 -2.3238579176222203
6 1.7878438376335248 2.236011213573349 1.5066192734740778
