LAMMPS data file via write_data, version 7 Feb 2024, timestep = 24, units = metal

6 atoms
2 atom types

0 2.517300141024109 xlo xhi
0 4.360091742154057 ylo yhi
0 6.166100874945203 zlo zhi
-2.220446049250313e-16 -1.2586500705120542 -2.180045871077027 xy xz yz

Masses

1 51.9961
2 55.845

Atoms # atomic

1 1 -0.003095336185473918 0.07656970702018542 0.6417245535813815 0 0 0
2 1 1.2572347940881663 -0.7913242443202209 3.489651404992979 0 0 0
3 1 1.255394202040554 0.9195692885578796 2.16349710420374 0 0 0
4 1 1.2661527915332147 2.0257487618542283 0.3195717505569144 0 0 0
5 1 -0.0032390814413724156 1.5611988642445669 3.780293885357472 0 0 0
6 2 0.003502841501077658 2.74837523587445 1.93746305119792 0 0 0

Velocities

1 -0.05651746602204169 1.5898871850774372 2.2051325160077067
2 -3.2026319987004856 0.29699060235264063 -0.182563750458022
3 3.443750866651415 0.14039020057303322 -3.4455398760286826
4 3.3981983607995367 -1.810079660985486 0.5792719068107898
5 0.07888356780640642 1.0091612282634972 0.5161799210157764
6 -3.409316010794559 -1.1418281692425967 0.30494628655607675
