LAMMPS data file via write_data, version 7 Feb 2024, timestep = 10, units = metal

6 atoms
2 atom types

0 4.072935059634513 xlo xhi
0 4.072935059634512 ylo yhi
0 4.32 zlo zhi
0 -2.036467529817256 -2.8769013915096585e-15 xy xz yz

Masses

1 51.9961
2 55.845

Atoms # atomic

1 1 -3.892347555546974e-05 0.00843722893935195 0.044381713867187506 0 0 0
2 1 5.670896776088785e-05 2.0424304716489634 1.4264457886960837 0 0 0
3 1 1.2725193571538895e-05 4.051410003791817 2.8586966137054772 0 -1 0
4 2 2.0364842191204806 2.0445889866696043 0.023951224704715186 0 0 0
5 1 2.036480574395447 0.004555247236623283 1.4380164200961412 0 0 0
6 2 2.0364072852500663 2.030915710799923 2.848508238930391 0 0 0

Velocities

1 0.9376975904397581 1.2930778603711792 1.7737213450741027
2 -0.2445386944522209 0.3252885120427201 1.745811216224127
3 -2.1153719457740388 2.7151597592237917 3.0503764308319146
4 -1.8585303446776187 -2.4081758040064276 -3.22055440843959
5 1.086909013844194 -1.6634855412185987 -3.4221044933974163
6 2.170724850600437 -0.07784259591281552 0.2897001243218211
