LAMMPS data file via write_data, version 7 Feb 2024, timestep = 10, units = metal

6 atoms
2 atom types

0 3.5599999999999996 xlo xhi
0 3.9802009999496257 ylo yhi
0 4.776241199939551 zlo zhi
1.7799999999999996 0 -1.5920803999798498 xy xz yz

Masses

1 51.9961
2 55.845

Atoms # atomic

1 1 3.5618315602677915 -0.027616295080274227 0.10789413452148439 -1 0 0
2 1 3.5620929114700584 2.401263882660266 0.8909905408444198 -1 0 0
3 1 1.7866271219233925 0.813760939320075 1.5680647675384711 0 0 0
4 1 1.7836344647684481 3.2084941511800027 2.306474144963981 0 -1 0
5 2 3.5597044997809 1.5931506339894457 3.1316112772395583 -1 0 0
6 2 1.7661094417894114 -0.02865131217026118 3.9355681347409606 0 0 0

Velocities

1 2.142669522611066 2.29040000321617 4.276378014606529
2 -1.2988407143009104 1.1073702045824454 -0.9559139595991253
3 -2.410996546962226 -2.4634923187792546 -1.5764776226664536
4 0.6882794265114837 -0.7803296524427394 -0.8702310263942951
5 -0.9584321917875835 -2.361719369183244 -2.311195538531902
6 1.7767465362569748 2.2183814176412664 1.4976603346077755
