LAMMPS data file via write_data, version 7 Feb 2024, timestep = 11, units = metal

6 atoms
2 atom types

0 2.494153162899183 xlo xhi
0 4.0729350596345135 ylo yhi
0 7.054530459215555 zlo zhi

Masses

1 51.9961
2 55.845

Atoms # atomic

1 1 0.0026553679846299896 4.071797399054568 0.016581713008576072 0 -1 0
2 1 0.8252501356045668 2.033017552589934 1.19878364098905 0 0 0
3 1 1.6641720037408223 0.0014560600850752562 2.3449342107220477 0 0 0
4 1 0.0008225133990400479 2.039197047624865 3.5063951216461233 0 0 0
5 2 0.8319409047439308 0.00094385491161944 4.697909487324985 0 0 0
6 2 1.6634654003253713 2.035925734820227 5.871721974348099 0 0 0

Velocities

1 0.8017201316222663 2.19176826918326 1.541893037699307
2 0.20861808433287715 -2.029530659399216 2.385715829214855
3 -2.8045455908407533 2.911597151045887 -4.703284881357685
4 -1.8298462296860118 -0.45420634554758715 -0.040371222864708914
5 2.739808898075753 -0.8764962531765931 0.32186825102713074
6 0.6344708696503899 -1.5625844352263487 0.43793609592967064
