LAMMPS data file via write_data, version 7 Feb 2024, timestep = 34, units = metal

6 atoms
2 atom types

0 3.5599999999999996 xlo xhi
0 3.9802009999496257 ylo yhi
0 4.776241199939551 zlo zhi
1.7799999999999996 0 -1.5920803999798498 xy xz yz

Masses

1 51.9961
2 55.845

Atoms # atomic

1 1 3.567304033317081 0.3843207031040299 0.5199081855754624 -1 0 0
2 1 3.555149429404887 2.7514221020035143 1.1172822264632178 -1 0 0
3 1 1.7853703355248713 0.9544982209200403 1.6671059732761317 0 0 0
4 1 1.7732345119005888 3.1023199705659983 2.284707864123214 0 -1 0
5 1 3.565837964565053 1.3305815980803333 2.8236146904033816 -1 0 0
6 2 1.7731037252875095 -0.5627405947746609 3.527984060007487 0 0 0

Velocities

1 2.1393467601759033 2.2740713468059077 4.250220766548692
2 -1.2856622175023915 1.0967139071206027 -0.956983557088138
3 -2.3924855157704745 -2.457027142199311 -1.5745717584626762
4 0.6919301339632428 -0.7819348582175482 -0.8717114540698784
5 -1.0597112253060914 -2.497249130474359 -2.441691499378153
6 1.775178291356768 2.202398073976981 1.4848264061446572
